 Entering Gaussian System, Link 0=g09
 Input=ch4-wb97xd.inp
 Output=ch4-wb97xd.log
 Initial command:
 /usr/local/g09/l1.exe /home/g09scr/Gau-12218.inp -scrdir=/home/g09scr/
 Entering Link 1 = /usr/local/g09/l1.exe PID=     12220.
  
 Copyright (c) 1988,1990,1992,1993,1995,1998,2003,2009,2010,
            Gaussian, Inc.  All Rights Reserved.
  
 This is part of the Gaussian(R) 09 program.  It is based on
 the Gaussian(R) 03 system (copyright 2003, Gaussian, Inc.),
 the Gaussian(R) 98 system (copyright 1998, Gaussian, Inc.),
 the Gaussian(R) 94 system (copyright 1995, Gaussian, Inc.),
 the Gaussian 92(TM) system (copyright 1992, Gaussian, Inc.),
 the Gaussian 90(TM) system (copyright 1990, Gaussian, Inc.),
 the Gaussian 88(TM) system (copyright 1988, Gaussian, Inc.),
 the Gaussian 86(TM) system (copyright 1986, Carnegie Mellon
 University), and the Gaussian 82(TM) system (copyright 1983,
 Carnegie Mellon University). Gaussian is a federally registered
 trademark of Gaussian, Inc.
  
 This software contains proprietary and confidential information,
 including trade secrets, belonging to Gaussian, Inc.
  
 This software is provided under written license and may be
 used, copied, transmitted, or stored only in accord with that
 written license.
  
 The following legend is applicable only to US Government
 contracts under FAR:
  
                    RESTRICTED RIGHTS LEGEND
  
 Use, reproduction and disclosure by the US Government is
 subject to restrictions as set forth in subparagraphs (a)
 and (c) of the Commercial Computer Software - Restricted
 Rights clause in FAR 52.227-19.
  
 Gaussian, Inc.
 340 Quinnipiac St., Bldg. 40, Wallingford CT 06492
  
  
 ---------------------------------------------------------------
 Warning -- This program may not be used in any manner that
 competes with the business of Gaussian, Inc. or will provide
 assistance to any competitor of Gaussian, Inc.  The licensee
 of this program is prohibited from giving any competitor of
 Gaussian, Inc. access to this program.  By using this program,
 the user acknowledges that Gaussian, Inc. is engaged in the
 business of creating and licensing software in the field of
 computational chemistry and represents and warrants to the
 licensee that it is not a competitor of Gaussian, Inc. and that
 it will not use this program in any manner prohibited above.
 ---------------------------------------------------------------
  

 Cite this work as:
 Gaussian 09, Revision B.01,
 M. J. Frisch, G. W. Trucks, H. B. Schlegel, G. E. Scuseria, 
 M. A. Robb, J. R. Cheeseman, G. Scalmani, V. Barone, B. Mennucci, 
 G. A. Petersson, H. Nakatsuji, M. Caricato, X. Li, H. P. Hratchian, 
 A. F. Izmaylov, J. Bloino, G. Zheng, J. L. Sonnenberg, M. Hada, 
 M. Ehara, K. Toyota, R. Fukuda, J. Hasegawa, M. Ishida, T. Nakajima, 
 Y. Honda, O. Kitao, H. Nakai, T. Vreven, J. A. Montgomery, Jr., 
 J. E. Peralta, F. Ogliaro, M. Bearpark, J. J. Heyd, E. Brothers, 
 K. N. Kudin, V. N. Staroverov, T. Keith, R. Kobayashi, J. Normand, 
 K. Raghavachari, A. Rendell, J. C. Burant, S. S. Iyengar, J. Tomasi, 
 M. Cossi, N. Rega, J. M. Millam, M. Klene, J. E. Knox, J. B. Cross, 
 V. Bakken, C. Adamo, J. Jaramillo, R. Gomperts, R. E. Stratmann, 
 O. Yazyev, A. J. Austin, R. Cammi, C. Pomelli, J. W. Ochterski, 
 R. L. Martin, K. Morokuma, V. G. Zakrzewski, G. A. Voth, 
 P. Salvador, J. J. Dannenberg, S. Dapprich, A. D. Daniels, 
 O. Farkas, J. B. Foresman, J. V. Ortiz, J. Cioslowski, 
 and D. J. Fox, Gaussian, Inc., Wallingford CT, 2010.
 
 ******************************************
 Gaussian 09:  EM64L-G09RevB.01 12-Aug-2010
                25-Apr-2025 
 ******************************************
 %chk=ch4-wb97xd.chk
 %nprocshared=4
 Will use up to    4 processors via shared memory.
 %mem=30GB
 ------------------------
 #wb97xd/6-31g(2df,p) Opt
 ------------------------
 1/14=-1,18=20,19=15,26=3,38=1/1,3;
 2/9=110,12=2,17=6,18=5,40=1/2;
 3/5=1,6=6,7=104,11=2,16=1,25=1,30=1,71=1,74=-58/1,2,3;
 4//1;
 5/5=2,38=5/2;
 6/7=2,8=2,9=2,10=2,28=1/1;
 7//1,2,3,16;
 1/14=-1,18=20,19=15/3(2);
 2/9=110/2;
 99//99;
 2/9=110/2;
 3/5=1,6=6,7=104,11=2,16=1,25=1,30=1,71=1,74=-58/1,2,3;
 4/5=5,16=3/1;
 5/5=2,38=5/2;
 7//1,2,3,16;
 1/14=-1,18=20,19=15/3(-5);
 2/9=110/2;
 6/7=2,8=2,9=2,10=2,19=2,28=1/1;
 99/9=1/99;
 ------------
 G4-B3LYP ch4
 ------------
 Symbolic Z-matrix:
 Charge =  0 Multiplicity = 1
 C                     0.00003  -0.00002  -0.00034 
 H                    -0.0138    0.00688   1.09137 
 H                    -0.40193   0.94378  -0.37415 
 H                    -0.61158  -0.82735  -0.36568 
 H                     1.02711  -0.12322  -0.34949 
 

 GradGradGradGradGradGradGradGradGradGradGradGradGradGradGradGradGradGrad
 Berny optimization.
 Initialization pass.
                           ----------------------------
                           !    Initial Parameters    !
                           ! (Angstroms and Degrees)  !
 --------------------------                            --------------------------
 ! Name  Definition              Value          Derivative Info.                !
 --------------------------------------------------------------------------------
 ! R1    R(1,2)                  1.0918         estimate D2E/DX2                !
 ! R2    R(1,3)                  1.0918         estimate D2E/DX2                !
 ! R3    R(1,4)                  1.0918         estimate D2E/DX2                !
 ! R4    R(1,5)                  1.0918         estimate D2E/DX2                !
 ! A1    A(2,1,3)              109.4032         estimate D2E/DX2                !
 ! A2    A(2,1,4)              109.4069         estimate D2E/DX2                !
 ! A3    A(2,1,5)              109.4146         estimate D2E/DX2                !
 ! A4    A(3,1,4)              109.5261         estimate D2E/DX2                !
 ! A5    A(3,1,5)              109.5361         estimate D2E/DX2                !
 ! A6    A(4,1,5)              109.5402         estimate D2E/DX2                !
 ! D1    D(2,1,4,3)            119.9109         estimate D2E/DX2                !
 ! D2    D(2,1,5,3)           -119.9217         estimate D2E/DX2                !
 ! D3    D(2,1,5,4)            119.9288         estimate D2E/DX2                !
 ! D4    D(3,1,5,4)           -120.1495         estimate D2E/DX2                !
 --------------------------------------------------------------------------------
 Trust Radius=3.00D-01 FncErr=1.00D-07 GrdErr=1.00D-06
 Number of steps in this run=     24 maximum allowed number of steps=    100.
 GradGradGradGradGradGradGradGradGradGradGradGradGradGradGradGradGradGrad

                          Input orientation:                          
 ---------------------------------------------------------------------
 Center     Atomic      Atomic             Coordinates (Angstroms)
 Number     Number       Type             X           Y           Z
 ---------------------------------------------------------------------
      1          6           0        0.000034   -0.000016   -0.000341
      2          1           0       -0.013801    0.006884    1.091369
      3          1           0       -0.401930    0.943784   -0.374154
      4          1           0       -0.611580   -0.827351   -0.365677
      5          1           0        1.027106   -0.123221   -0.349489
 ---------------------------------------------------------------------
                    Distance matrix (angstroms):
                    1          2          3          4          5
     1  C    0.000000
     2  H    1.091819   0.000000
     3  H    1.091819   1.782185   0.000000
     4  H    1.091799   1.782210   1.783520   0.000000
     5  H    1.091770   1.782270   1.783606   1.783635   0.000000
 Stoichiometry    CH4
 Framework group  C1[X(CH4)]
 Deg. of freedom     9
 Full point group                 C1      NOp   1
 Largest Abelian subgroup         C1      NOp   1
 Largest concise Abelian subgroup C1      NOp   1
                         Standard orientation:                         
 ---------------------------------------------------------------------
 Center     Atomic      Atomic             Coordinates (Angstroms)
 Number     Number       Type             X           Y           Z
 ---------------------------------------------------------------------
      1          6           0        0.000034   -0.000016   -0.000341
      2          1           0       -0.013796    0.006894    1.091369
      3          1           0       -0.401226    0.944083   -0.374154
      4          1           0       -0.612197   -0.826895   -0.365677
      5          1           0        1.027014   -0.123987   -0.349489
 ---------------------------------------------------------------------
 Rotational constants (GHZ):    157.8188413    157.8066082    157.6316046
 Standard basis: 6-31G(2df,p) (6D, 7F)
 There are    48 symmetry adapted basis functions of A   symmetry.
 Integral buffers will be    131072 words long.
 Raffenetti 2 integral format.
 Two-electron integral symmetry is turned on.
    48 basis functions,    72 primitive gaussians,    51 cartesian basis functions
     5 alpha electrons        5 beta electrons
       nuclear repulsion energy        13.4132167626 Hartrees.
 NAtoms=    5 NActive=    5 NUniq=    5 SFac= 1.00D+00 NAtFMM=   50 NAOKFM=F Big=F
 Nuclear repulsion after empirical dispersion term =       13.4128155741 Hartrees.
 One-electron integrals computed using PRISM.
 NBasis=    48 RedAO= T  NBF=    48
 NBsUse=    48 1.00D-06 NBFU=    48
 Harris functional with IExCor= 4639 diagonalized for initial guess.
 ExpMin= 1.61D-01 ExpMax= 3.05D+03 ExpMxC= 4.57D+02 IAcc=1 IRadAn=         1 AccDes= 0.00D+00
 HarFok:  IExCor= 4639 AccDes= 0.00D+00 IRadAn=         1 IDoV= 1
 ScaDFX=  1.000000  1.000000  1.000000  1.000000
 FoFCou: FMM=F IPFlag=           0 FMFlag=      100000 FMFlg1=           0
         NFxFlg=           0 DoJE=T BraDBF=F KetDBF=T FulRan=T
         Omega=  0.000000  0.000000  1.000000  0.000000  0.000000 ICntrl=     500 IOpCl=  0
         NMat0=    1 NMatS0=    1 NMatT0=    0 NMatD0=    1 NMtDS0=    0 NMtDT0=    0
         I1Cent=           4 NGrid=           0.
 Petite list used in FoFCou.
 Initial guess orbital symmetries:
       Occupied  (A) (A) (A) (A) (A)
       Virtual   (A) (A) (A) (A) (A) (A) (A) (A) (A) (A) (A) (A)
                 (A) (A) (A) (A) (A) (A) (A) (A) (A) (A) (A) (A)
                 (A) (A) (A) (A) (A) (A) (A) (A) (A) (A) (A) (A)
                 (A) (A) (A) (A) (A) (A) (A)
 The electronic state of the initial guess is 1-A.
 Requested convergence on RMS density matrix=1.00D-08 within 128 cycles.
 Requested convergence on MAX density matrix=1.00D-06.
 Requested convergence on             energy=1.00D-06.
 No special actions if energy rises.
 Integral accuracy reduced to 1.0D-05 until final iterations.
 FoFJK:  IHMeth= 1 ICntrl=     0 DoSepK=T KAlg= 1 I1Cent= 0 FoldK=F
 FoFJK:  IHMeth= 1 ICntrl=     0 DoSepK=T KAlg= 1 I1Cent= 0 FoldK=F
 FoFJK:  IHMeth= 1 ICntrl=     0 DoSepK=T KAlg= 1 I1Cent= 0 FoldK=F
 FoFJK:  IHMeth= 1 ICntrl=     0 DoSepK=T KAlg= 1 I1Cent= 0 FoldK=F
 FoFJK:  IHMeth= 1 ICntrl=     0 DoSepK=T KAlg= 1 I1Cent= 0 FoldK=F
 Initial convergence to 1.0D-05 achieved.  Increase integral accuracy.
 FoFJK:  IHMeth= 1 ICntrl=     0 DoSepK=T KAlg= 1 I1Cent= 0 FoldK=F
 FoFJK:  IHMeth= 1 ICntrl=     0 DoSepK=T KAlg= 1 I1Cent= 0 FoldK=F
 FoFJK:  IHMeth= 1 ICntrl=     0 DoSepK=T KAlg= 1 I1Cent= 0 FoldK=F
 FoFJK:  IHMeth= 1 ICntrl=     0 DoSepK=T KAlg= 1 I1Cent= 0 FoldK=F
 FoFJK:  IHMeth= 1 ICntrl=     0 DoSepK=T KAlg= 1 I1Cent= 0 FoldK=F
 FoFJK:  IHMeth= 1 ICntrl=     0 DoSepK=T KAlg= 1 I1Cent= 0 FoldK=F
 FoFJK:  IHMeth= 1 ICntrl=     0 DoSepK=T KAlg= 1 I1Cent= 0 FoldK=F
 SCF Done:  E(RwB97XD) =  -40.5073081556     A.U. after   12 cycles
             Convg  =    0.1702D-08             -V/T =  2.0101

 **********************************************************************

            Population analysis using the SCF density.

 **********************************************************************

 Orbital symmetries:
       Occupied  (A) (A) (A) (A) (A)
       Virtual   (A) (A) (A) (A) (A) (A) (A) (A) (A) (A) (A) (A)
                 (A) (A) (A) (A) (A) (A) (A) (A) (A) (A) (A) (A)
                 (A) (A) (A) (A) (A) (A) (A) (A) (A) (A) (A) (A)
                 (A) (A) (A) (A) (A) (A) (A)
 The electronic state is 1-A.
 Alpha  occ. eigenvalues --  -10.27548  -0.78671  -0.47122  -0.47119  -0.47088
 Alpha virt. eigenvalues --    0.20393   0.26060   0.26072   0.26074   0.59682
 Alpha virt. eigenvalues --    0.59685   0.59687   0.84268   0.84272   0.85194
 Alpha virt. eigenvalues --    0.85215   0.85218   0.97688   1.12726   1.78143
 Alpha virt. eigenvalues --    1.78143   1.78181   2.04539   2.04568   2.04580
 Alpha virt. eigenvalues --    2.50760   2.50910   2.50922   2.75303   2.96091
 Alpha virt. eigenvalues --    2.96114   2.96126   3.11452   3.11454   3.22645
 Alpha virt. eigenvalues --    3.80065   3.80076   3.80333   4.03500   4.03519
 Alpha virt. eigenvalues --    4.03718   4.34951   4.34968   4.83490   4.83494
 Alpha virt. eigenvalues --    4.83570   5.40400  11.27047
          Condensed to atoms (all electrons):
              1          2          3          4          5
     1  C    5.026263   0.394121   0.394223   0.394220   0.394233
     2  H    0.394121   0.528148  -0.024364  -0.024362  -0.024354
     3  H    0.394223  -0.024364   0.527983  -0.024290  -0.024280
     4  H    0.394220  -0.024362  -0.024290   0.527953  -0.024276
     5  H    0.394233  -0.024354  -0.024280  -0.024276   0.527912
 Mulliken atomic charges:
              1
     1  C   -0.603060
     2  H    0.150811
     3  H    0.150728
     4  H    0.150756
     5  H    0.150765
 Sum of Mulliken atomic charges =   0.00000
 Mulliken charges with hydrogens summed into heavy atoms:
              1
     1  C    0.000000
 Sum of Mulliken charges with hydrogens summed into heavy atoms =   0.00000
 Electronic spatial extent (au):  <R**2>=             35.2587
 Charge=              0.0000 electrons
 Dipole moment (field-independent basis, Debye):
    X=             -0.0001    Y=              0.0001    Z=              0.0011  Tot=              0.0011
 Quadrupole moment (field-independent basis, Debye-Ang):
   XX=             -8.1716   YY=             -8.1722   ZZ=             -8.1781
   XY=             -0.0001   XZ=              0.0000   YZ=              0.0000
 Traceless Quadrupole moment (field-independent basis, Debye-Ang):
   XX=              0.0024   YY=              0.0018   ZZ=             -0.0042
   XY=             -0.0001   XZ=              0.0000   YZ=              0.0000
 Octapole moment (field-independent basis, Debye-Ang**2):
  XXX=              0.6093  YYY=              0.2117  ZZZ=              0.8915  XYY=             -0.5870
  XXY=             -0.2228  XXZ=             -0.4356  XZZ=             -0.0225  YZZ=              0.0113
  YYZ=             -0.4532  XYZ=              0.0008
 Hexadecapole moment (field-independent basis, Debye-Ang**3):
 XXXX=            -14.8023 YYYY=            -14.8232 ZZZZ=            -14.5568 XXXY=             -0.0070
 XXXZ=             -0.3357 YYYX=              0.0080 YYYZ=             -0.1333 ZZZX=             -0.0135
 ZZZY=              0.0065 XXYY=             -4.9469 XXZZ=             -5.2120 YYZZ=             -5.1916
 XXYZ=              0.1268 YYXZ=              0.3491 ZZXY=             -0.0013
 N-N= 1.341281557411D+01 E-N=-1.199184465913D+02  KE= 4.010244095814D+01
 Calling FoFJK, ICntrl=      2127 FMM=F ISym2X=0 I1Cent= 0 IOpClX= 0 NMat=1 NMatS=1 NMatT=0.
 FoFJK:  IHMeth= 1 ICntrl=  2127 DoSepK=T KAlg= 1 I1Cent= 0 FoldK=F
 ***** Axes restored to original set *****
 -------------------------------------------------------------------
 Center     Atomic                   Forces (Hartrees/Bohr)
 Number     Number              X              Y              Z
 -------------------------------------------------------------------
      1        6           0.000067670    0.000082291    0.000370281
      2        1          -0.000006171    0.000005362   -0.000196149
      3        1           0.000073596   -0.000325922   -0.000094677
      4        1           0.000179401    0.000255225   -0.000013914
      5        1          -0.000314496   -0.000016956   -0.000065540
 -------------------------------------------------------------------
 Cartesian Forces:  Max     0.000370281 RMS     0.000184140

 GradGradGradGradGradGradGradGradGradGradGradGradGradGradGradGradGradGrad
 Berny optimization.
 Internal  Forces:  Max     0.000289267 RMS     0.000155949
 Search for a local minimum.
 Step number   1 out of a maximum of   24
 All quantities printed in internal units (Hartrees-Bohrs-Radians)
 Mixed Optimization -- En-DIIS/RFO-DIIS
 Second derivative matrix not updated -- first step.
 The second derivative matrix:
                          R1        R2        R3        R4        A1
           R1           0.34603
           R2           0.00000   0.34603
           R3           0.00000   0.00000   0.34606
           R4           0.00000   0.00000   0.00000   0.34609
           A1           0.00000   0.00000   0.00000   0.00000   0.16000
           A2           0.00000   0.00000   0.00000   0.00000   0.00000
           A3           0.00000   0.00000   0.00000   0.00000   0.00000
           A4           0.00000   0.00000   0.00000   0.00000   0.00000
           A5           0.00000   0.00000   0.00000   0.00000   0.00000
           A6           0.00000   0.00000   0.00000   0.00000   0.00000
           D1           0.00000   0.00000   0.00000   0.00000   0.00000
           D2           0.00000   0.00000   0.00000   0.00000   0.00000
           D3           0.00000   0.00000   0.00000   0.00000   0.00000
           D4           0.00000   0.00000   0.00000   0.00000   0.00000
                          A2        A3        A4        A5        A6
           A2           0.16000
           A3           0.00000   0.16000
           A4           0.00000   0.00000   0.16000
           A5           0.00000   0.00000   0.00000   0.16000
           A6           0.00000   0.00000   0.00000   0.00000   0.16000
           D1           0.00000   0.00000   0.00000   0.00000   0.00000
           D2           0.00000   0.00000   0.00000   0.00000   0.00000
           D3           0.00000   0.00000   0.00000   0.00000   0.00000
           D4           0.00000   0.00000   0.00000   0.00000   0.00000
                          D1        D2        D3        D4
           D1           0.00230
           D2           0.00000   0.00230
           D3           0.00000   0.00000   0.00230
           D4           0.00000   0.00000   0.00000   0.00230
 ITU=  0
     Eigenvalues ---    0.05079   0.05705   0.08654   0.16000   0.16000
     Eigenvalues ---    0.34603   0.34603   0.34606   0.34609
 RFO step:  Lambda=-1.86309950D-06 EMin= 5.07918028D-02
 Linear search not attempted -- first point.
 Iteration  1 RMS(Cart)=  0.00081806 RMS(Int)=  0.00000097
 Iteration  2 RMS(Cart)=  0.00000055 RMS(Int)=  0.00000078
 Variable       Old X    -DE/DX   Delta X   Delta X   Delta X     New X
                                 (Linear)    (Quad)   (Total)
    R1        2.06324  -0.00020   0.00000  -0.00057  -0.00057   2.06267
    R2        2.06324  -0.00028   0.00000  -0.00080  -0.00080   2.06244
    R3        2.06320  -0.00029   0.00000  -0.00084  -0.00084   2.06237
    R4        2.06315  -0.00027   0.00000  -0.00079  -0.00079   2.06236
    A1        1.90945   0.00004   0.00000   0.00118   0.00118   1.91062
    A2        1.90951   0.00004   0.00000   0.00070   0.00070   1.91021
    A3        1.90965   0.00011   0.00000   0.00114   0.00114   1.91079
    A4        1.91159  -0.00005   0.00000  -0.00133  -0.00133   1.91026
    A5        1.91177  -0.00004   0.00000  -0.00055  -0.00055   1.91122
    A6        1.91184  -0.00011   0.00000  -0.00114  -0.00114   1.91070
    D1        2.09284   0.00005   0.00000   0.00106   0.00106   2.09390
    D2       -2.09303  -0.00010   0.00000  -0.00180  -0.00180  -2.09483
    D3        2.09315   0.00005   0.00000   0.00086   0.00086   2.09401
    D4       -2.09700   0.00015   0.00000   0.00267   0.00267  -2.09434
         Item               Value     Threshold  Converged?
 Maximum Force            0.000289     0.000450     YES
 RMS     Force            0.000156     0.000300     YES
 Maximum Displacement     0.001456     0.001800     YES
 RMS     Displacement     0.000818     0.001200     YES
 Predicted change in Energy=-9.308693D-07
 Optimization completed.
    -- Stationary point found.
                           ----------------------------
                           !   Optimized Parameters   !
                           ! (Angstroms and Degrees)  !
 --------------------------                            --------------------------
 ! Name  Definition              Value          Derivative Info.                !
 --------------------------------------------------------------------------------
 ! R1    R(1,2)                  1.0918         -DE/DX =   -0.0002              !
 ! R2    R(1,3)                  1.0918         -DE/DX =   -0.0003              !
 ! R3    R(1,4)                  1.0918         -DE/DX =   -0.0003              !
 ! R4    R(1,5)                  1.0918         -DE/DX =   -0.0003              !
 ! A1    A(2,1,3)              109.4032         -DE/DX =    0.0                 !
 ! A2    A(2,1,4)              109.4069         -DE/DX =    0.0                 !
 ! A3    A(2,1,5)              109.4146         -DE/DX =    0.0001              !
 ! A4    A(3,1,4)              109.5261         -DE/DX =    0.0                 !
 ! A5    A(3,1,5)              109.5361         -DE/DX =    0.0                 !
 ! A6    A(4,1,5)              109.5402         -DE/DX =   -0.0001              !
 ! D1    D(2,1,4,3)            119.9109         -DE/DX =    0.0                 !
 ! D2    D(2,1,5,3)           -119.9217         -DE/DX =   -0.0001              !
 ! D3    D(2,1,5,4)            119.9288         -DE/DX =    0.0001              !
 ! D4    D(3,1,5,4)           -120.1495         -DE/DX =    0.0001              !
 --------------------------------------------------------------------------------
 GradGradGradGradGradGradGradGradGradGradGradGradGradGradGradGradGradGrad

                          Input orientation:                          
 ---------------------------------------------------------------------
 Center     Atomic      Atomic             Coordinates (Angstroms)
 Number     Number       Type             X           Y           Z
 ---------------------------------------------------------------------
      1          6           0        0.000034   -0.000016   -0.000341
      2          1           0       -0.013801    0.006884    1.091369
      3          1           0       -0.401930    0.943784   -0.374154
      4          1           0       -0.611580   -0.827351   -0.365677
      5          1           0        1.027106   -0.123221   -0.349489
 ---------------------------------------------------------------------
                    Distance matrix (angstroms):
                    1          2          3          4          5
     1  C    0.000000
     2  H    1.091819   0.000000
     3  H    1.091819   1.782185   0.000000
     4  H    1.091799   1.782210   1.783520   0.000000
     5  H    1.091770   1.782270   1.783606   1.783635   0.000000
 Stoichiometry    CH4
 Framework group  C1[X(CH4)]
 Deg. of freedom     9
 Full point group                 C1      NOp   1
 Largest Abelian subgroup         C1      NOp   1
 Largest concise Abelian subgroup C1      NOp   1
                         Standard orientation:                         
 ---------------------------------------------------------------------
 Center     Atomic      Atomic             Coordinates (Angstroms)
 Number     Number       Type             X           Y           Z
 ---------------------------------------------------------------------
      1          6           0        0.000034   -0.000016   -0.000341
      2          1           0       -0.013796    0.006894    1.091369
      3          1           0       -0.401226    0.944083   -0.374154
      4          1           0       -0.612197   -0.826895   -0.365677
      5          1           0        1.027014   -0.123987   -0.349489
 ---------------------------------------------------------------------
 Rotational constants (GHZ):    157.8188413    157.8066082    157.6316046
 1\1\GINC-PLUTO\FOpt\RwB97XD\6-31G(2df,p)\C1H4\JMSOLANO\25-Apr-2025\0\\
 #wb97xd/6-31g(2df,p) Opt\\G4-B3LYP ch4\\0,1\C,0.000034,-0.000016,-0.00
 0341\H,-0.013801,0.006884,1.091369\H,-0.40193,0.943784,-0.374154\H,-0.
 61158,-0.827351,-0.365677\H,1.027106,-0.123221,-0.349489\\Version=EM64
 L-G09RevB.01\State=1-A\HF=-40.5073082\RMSD=1.702e-09\RMSF=1.841e-04\Di
 pole=-0.0000448,0.0000329,0.0004459\Quadrupole=0.0017761,0.0013154,-0.
 0030915,-0.0000859,-0.0000052,0.0000013\PG=C01 [X(C1H4)]\\@


 ACCORDING TO HEN3RY, LIFE IS MUCH LIKE A SEWER........
 YOU GET OUT OF IT JUST WHAT YOU PUT INTO IT...........
                         TOM LEHRER - (THE 3 IS SILENT)
 Job cpu time:  0 days  0 hours  0 minutes 44.3 seconds.
 File lengths (MBytes):  RWF=      5 Int=      0 D2E=      0 Chk=      1 Scr=      1
 Normal termination of Gaussian 09 at Fri Apr 25 13:42:06 2025.
 Initial command:
 /usr/local/g09/l1.exe /home/g09scr/Gau-12218.inp -scrdir=/home/g09scr/
 Entering Link 1 = /usr/local/g09/l1.exe PID=     12276.
  
 Copyright (c) 1988,1990,1992,1993,1995,1998,2003,2009,2010,
            Gaussian, Inc.  All Rights Reserved.
  
 This is part of the Gaussian(R) 09 program.  It is based on
 the Gaussian(R) 03 system (copyright 2003, Gaussian, Inc.),
 the Gaussian(R) 98 system (copyright 1998, Gaussian, Inc.),
 the Gaussian(R) 94 system (copyright 1995, Gaussian, Inc.),
 the Gaussian 92(TM) system (copyright 1992, Gaussian, Inc.),
 the Gaussian 90(TM) system (copyright 1990, Gaussian, Inc.),
 the Gaussian 88(TM) system (copyright 1988, Gaussian, Inc.),
 the Gaussian 86(TM) system (copyright 1986, Carnegie Mellon
 University), and the Gaussian 82(TM) system (copyright 1983,
 Carnegie Mellon University). Gaussian is a federally registered
 trademark of Gaussian, Inc.
  
 This software contains proprietary and confidential information,
 including trade secrets, belonging to Gaussian, Inc.
  
 This software is provided under written license and may be
 used, copied, transmitted, or stored only in accord with that
 written license.
  
 The following legend is applicable only to US Government
 contracts under FAR:
  
                    RESTRICTED RIGHTS LEGEND
  
 Use, reproduction and disclosure by the US Government is
 subject to restrictions as set forth in subparagraphs (a)
 and (c) of the Commercial Computer Software - Restricted
 Rights clause in FAR 52.227-19.
  
 Gaussian, Inc.
 340 Quinnipiac St., Bldg. 40, Wallingford CT 06492
  
  
 ---------------------------------------------------------------
 Warning -- This program may not be used in any manner that
 competes with the business of Gaussian, Inc. or will provide
 assistance to any competitor of Gaussian, Inc.  The licensee
 of this program is prohibited from giving any competitor of
 Gaussian, Inc. access to this program.  By using this program,
 the user acknowledges that Gaussian, Inc. is engaged in the
 business of creating and licensing software in the field of
 computational chemistry and represents and warrants to the
 licensee that it is not a competitor of Gaussian, Inc. and that
 it will not use this program in any manner prohibited above.
 ---------------------------------------------------------------
  

 Cite this work as:
 Gaussian 09, Revision B.01,
 M. J. Frisch, G. W. Trucks, H. B. Schlegel, G. E. Scuseria, 
 M. A. Robb, J. R. Cheeseman, G. Scalmani, V. Barone, B. Mennucci, 
 G. A. Petersson, H. Nakatsuji, M. Caricato, X. Li, H. P. Hratchian, 
 A. F. Izmaylov, J. Bloino, G. Zheng, J. L. Sonnenberg, M. Hada, 
 M. Ehara, K. Toyota, R. Fukuda, J. Hasegawa, M. Ishida, T. Nakajima, 
 Y. Honda, O. Kitao, H. Nakai, T. Vreven, J. A. Montgomery, Jr., 
 J. E. Peralta, F. Ogliaro, M. Bearpark, J. J. Heyd, E. Brothers, 
 K. N. Kudin, V. N. Staroverov, T. Keith, R. Kobayashi, J. Normand, 
 K. Raghavachari, A. Rendell, J. C. Burant, S. S. Iyengar, J. Tomasi, 
 M. Cossi, N. Rega, J. M. Millam, M. Klene, J. E. Knox, J. B. Cross, 
 V. Bakken, C. Adamo, J. Jaramillo, R. Gomperts, R. E. Stratmann, 
 O. Yazyev, A. J. Austin, R. Cammi, C. Pomelli, J. W. Ochterski, 
 R. L. Martin, K. Morokuma, V. G. Zakrzewski, G. A. Voth, 
 P. Salvador, J. J. Dannenberg, S. Dapprich, A. D. Daniels, 
 O. Farkas, J. B. Foresman, J. V. Ortiz, J. Cioslowski, 
 and D. J. Fox, Gaussian, Inc., Wallingford CT, 2010.
 
 ******************************************
 Gaussian 09:  EM64L-G09RevB.01 12-Aug-2010
                25-Apr-2025 
 ******************************************
 %chk=ch4-wb97xd.chk
 %nprocshared=4
 Will use up to    4 processors via shared memory.
 %mem=30GB
 -----------------------------------------------------------------
 #N Geom=AllCheck Guess=TCheck SCRF=Check wb97xd/6-31g(2df,p) Freq
 -----------------------------------------------------------------
 1/10=4,29=7,30=1,38=1,40=1/1,3;
 2/12=2,40=1/2;
 3/5=1,6=6,7=104,11=2,14=-4,16=1,25=1,30=1,70=2,71=2,74=-58,116=-2/1,2,3;
 4/5=101/1;
 5/5=2,98=1/2;
 8/6=4,10=90,11=11/1;
 11/6=1,8=1,9=11,15=111,16=1/1,2,10;
 10/6=1/2;
 6/7=2,8=2,9=2,10=2,18=1,28=1/1;
 7/8=1,10=1,25=1/1,2,3,16;
 1/10=4,30=1/3;
 99//99;
 ------------
 G4-B3LYP ch4
 ------------
 Redundant internal coordinates taken from checkpoint file:
 ch4-wb97xd.chk
 Charge =  0 Multiplicity = 1
 C,0,0.000034,-0.000016,-0.000341
 H,0,-0.013801,0.006884,1.091369
 H,0,-0.40193,0.943784,-0.374154
 H,0,-0.61158,-0.827351,-0.365677
 H,0,1.027106,-0.123221,-0.349489
 Recover connectivity data from disk.

 GradGradGradGradGradGradGradGradGradGradGradGradGradGradGradGradGradGrad
 Berny optimization.
 Initialization pass.
                           ----------------------------
                           !    Initial Parameters    !
                           ! (Angstroms and Degrees)  !
 --------------------------                            --------------------------
 ! Name  Definition              Value          Derivative Info.                !
 --------------------------------------------------------------------------------
 ! R1    R(1,2)                  1.0918         calculate D2E/DX2 analytically  !
 ! R2    R(1,3)                  1.0918         calculate D2E/DX2 analytically  !
 ! R3    R(1,4)                  1.0918         calculate D2E/DX2 analytically  !
 ! R4    R(1,5)                  1.0918         calculate D2E/DX2 analytically  !
 ! A1    A(2,1,3)              109.4032         calculate D2E/DX2 analytically  !
 ! A2    A(2,1,4)              109.4069         calculate D2E/DX2 analytically  !
 ! A3    A(2,1,5)              109.4146         calculate D2E/DX2 analytically  !
 ! A4    A(3,1,4)              109.5261         calculate D2E/DX2 analytically  !
 ! A5    A(3,1,5)              109.5361         calculate D2E/DX2 analytically  !
 ! A6    A(4,1,5)              109.5402         calculate D2E/DX2 analytically  !
 ! D1    D(2,1,4,3)            119.9109         calculate D2E/DX2 analytically  !
 ! D2    D(2,1,5,3)           -119.9217         calculate D2E/DX2 analytically  !
 ! D3    D(2,1,5,4)            119.9288         calculate D2E/DX2 analytically  !
 ! D4    D(3,1,5,4)           -120.1495         calculate D2E/DX2 analytically  !
 --------------------------------------------------------------------------------
 Trust Radius=3.00D-01 FncErr=1.00D-07 GrdErr=1.00D-07
 Number of steps in this run=      2 maximum allowed number of steps=      2.
 GradGradGradGradGradGradGradGradGradGradGradGradGradGradGradGradGradGrad

                          Input orientation:                          
 ---------------------------------------------------------------------
 Center     Atomic      Atomic             Coordinates (Angstroms)
 Number     Number       Type             X           Y           Z
 ---------------------------------------------------------------------
      1          6           0        0.000034   -0.000016   -0.000341
      2          1           0       -0.013801    0.006884    1.091369
      3          1           0       -0.401930    0.943784   -0.374154
      4          1           0       -0.611580   -0.827351   -0.365677
      5          1           0        1.027106   -0.123221   -0.349489
 ---------------------------------------------------------------------
                    Distance matrix (angstroms):
                    1          2          3          4          5
     1  C    0.000000
     2  H    1.091819   0.000000
     3  H    1.091819   1.782185   0.000000
     4  H    1.091799   1.782210   1.783520   0.000000
     5  H    1.091770   1.782270   1.783606   1.783635   0.000000
 Stoichiometry    CH4
 Framework group  C1[X(CH4)]
 Deg. of freedom     9
 Full point group                 C1      NOp   1
 Largest Abelian subgroup         C1      NOp   1
 Largest concise Abelian subgroup C1      NOp   1
                         Standard orientation:                         
 ---------------------------------------------------------------------
 Center     Atomic      Atomic             Coordinates (Angstroms)
 Number     Number       Type             X           Y           Z
 ---------------------------------------------------------------------
      1          6           0        0.000034   -0.000016   -0.000341
      2          1           0       -0.013796    0.006894    1.091369
      3          1           0       -0.401226    0.944083   -0.374154
      4          1           0       -0.612197   -0.826895   -0.365677
      5          1           0        1.027014   -0.123987   -0.349489
 ---------------------------------------------------------------------
 Rotational constants (GHZ):    157.8188413    157.8066082    157.6316046
 Standard basis: 6-31G(2df,p) (6D, 7F)
 There are    48 symmetry adapted basis functions of A   symmetry.
 Integral buffers will be    131072 words long.
 Raffenetti 2 integral format.
 Two-electron integral symmetry is turned on.
    48 basis functions,    72 primitive gaussians,    51 cartesian basis functions
     5 alpha electrons        5 beta electrons
       nuclear repulsion energy        13.4132167626 Hartrees.
 NAtoms=    5 NActive=    5 NUniq=    5 SFac= 1.00D+00 NAtFMM=   50 NAOKFM=F Big=F
 Nuclear repulsion after empirical dispersion term =       13.4128155741 Hartrees.
 One-electron integrals computed using PRISM.
 NBasis=    48 RedAO= T  NBF=    48
 NBsUse=    48 1.00D-06 NBFU=    48
 Initial guess read from the checkpoint file:  ch4-wb97xd.chk
 B after Tr=     0.000000    0.000000    0.000000
         Rot=    1.000000    0.000000    0.000000    0.000000 Ang=   0.00 deg.
 Initial guess orbital symmetries:
       Occupied  (A) (A) (A) (A) (A)
       Virtual   (A) (A) (A) (A) (A) (A) (A) (A) (A) (A) (A) (A)
                 (A) (A) (A) (A) (A) (A) (A) (A) (A) (A) (A) (A)
                 (A) (A) (A) (A) (A) (A) (A) (A) (A) (A) (A) (A)
                 (A) (A) (A) (A) (A) (A) (A)
 Requested convergence on RMS density matrix=1.00D-08 within 128 cycles.
 Requested convergence on MAX density matrix=1.00D-06.
 Requested convergence on             energy=1.00D-06.
 No special actions if energy rises.
 FoFJK:  IHMeth= 1 ICntrl=     0 DoSepK=T KAlg= 1 I1Cent= 0 FoldK=F
 SCF Done:  E(RwB97XD) =  -40.5073081556     A.U. after    1 cycles
             Convg  =    0.1187D-09             -V/T =  2.0101
 Range of M.O.s used for correlation:     1    48
 NBasis=    48 NAE=     5 NBE=     5 NFC=     0 NFV=     0
 NROrb=     48 NOA=     5 NOB=     5 NVA=    43 NVB=    43

 **** Warning!!: The largest alpha MO coefficient is  0.10591383D+02

 Symmetrizing basis deriv contribution to polar:
 IMax=3 JMax=2 DiffMx= 0.00D+00
 G2DrvN: will do     6 centers at a time, making    1 passes doing MaxLOS=3.
 Calling FoFCou, ICntrl=  3107 FMM=F I1Cent=   0 AccDes= 0.00D+00.
 FoFJK:  IHMeth= 1 ICntrl=  3107 DoSepK=T KAlg= 1 I1Cent= 0 FoldK=F
 FoFDir/FoFCou used for L=0 through L=3.
 End of G2Drv Frequency-dependent properties file   721 does not exist.
 End of G2Drv Frequency-dependent properties file   722 does not exist.
          IDoAtm=11111
          Differentiating once with respect to electric field.
                with respect to dipole field.
          Differentiating once with respect to nuclear coordinates.
 FoFJK:  IHMeth= 1 ICntrl=     0 DoSepK=T KAlg= 1 I1Cent= 0 FoldK=F
          There are    18 degrees of freedom in the 1st order CPHF.  IDoFFX=5.
     15 vectors produced by pass  0 Test12= 1.19D-15 5.56D-09 XBig12= 3.98D+00 1.27D+00.
 AX will form    15 AO Fock derivatives at one time.
 FoFJK:  IHMeth= 1 ICntrl=     0 DoSepK=T KAlg= 1 I1Cent= 0 FoldK=F
     15 vectors produced by pass  1 Test12= 1.19D-15 5.56D-09 XBig12= 7.51D-02 1.62D-01.
 FoFJK:  IHMeth= 1 ICntrl=     0 DoSepK=T KAlg= 1 I1Cent= 0 FoldK=F
     15 vectors produced by pass  2 Test12= 1.19D-15 5.56D-09 XBig12= 2.04D-04 5.89D-03.
 FoFJK:  IHMeth= 1 ICntrl=     0 DoSepK=T KAlg= 1 I1Cent= 0 FoldK=F
     15 vectors produced by pass  3 Test12= 1.19D-15 5.56D-09 XBig12= 1.95D-07 1.92D-04.
 FoFJK:  IHMeth= 1 ICntrl=     0 DoSepK=T KAlg= 1 I1Cent= 0 FoldK=F
     15 vectors produced by pass  4 Test12= 1.19D-15 5.56D-09 XBig12= 2.32D-10 6.04D-06.
 FoFJK:  IHMeth= 1 ICntrl=     0 DoSepK=T KAlg= 1 I1Cent= 0 FoldK=F
     15 vectors produced by pass  5 Test12= 1.19D-15 5.56D-09 XBig12= 8.17D-13 3.70D-07.
 FoFJK:  IHMeth= 1 ICntrl=     0 DoSepK=T KAlg= 1 I1Cent= 0 FoldK=F
      4 vectors produced by pass  6 Test12= 1.19D-15 5.56D-09 XBig12= 1.46D-15 2.12D-08.
 FoFJK:  IHMeth= 1 ICntrl=     0 DoSepK=T KAlg= 1 I1Cent= 0 FoldK=F
 Inverted reduced A of dimension    94 with in-core refinement.
 FoFJK:  IHMeth= 1 ICntrl=     0 DoSepK=T KAlg= 1 I1Cent= 0 FoldK=F
 Isotropic polarizability for W=    0.000000       13.33 Bohr**3.
 End of Minotr Frequency-dependent properties file   721 does not exist.
 End of Minotr Frequency-dependent properties file   722 does not exist.

 **********************************************************************

            Population analysis using the SCF density.

 **********************************************************************

 Orbital symmetries:
       Occupied  (A) (A) (A) (A) (A)
       Virtual   (A) (A) (A) (A) (A) (A) (A) (A) (A) (A) (A) (A)
                 (A) (A) (A) (A) (A) (A) (A) (A) (A) (A) (A) (A)
                 (A) (A) (A) (A) (A) (A) (A) (A) (A) (A) (A) (A)
                 (A) (A) (A) (A) (A) (A) (A)
 The electronic state is 1-A.
 Alpha  occ. eigenvalues --  -10.27548  -0.78671  -0.47122  -0.47119  -0.47088
 Alpha virt. eigenvalues --    0.20393   0.26060   0.26072   0.26074   0.59682
 Alpha virt. eigenvalues --    0.59685   0.59687   0.84268   0.84272   0.85194
 Alpha virt. eigenvalues --    0.85215   0.85218   0.97688   1.12726   1.78143
 Alpha virt. eigenvalues --    1.78143   1.78181   2.04539   2.04568   2.04580
 Alpha virt. eigenvalues --    2.50760   2.50910   2.50922   2.75303   2.96091
 Alpha virt. eigenvalues --    2.96114   2.96126   3.11452   3.11454   3.22645
 Alpha virt. eigenvalues --    3.80065   3.80076   3.80333   4.03500   4.03519
 Alpha virt. eigenvalues --    4.03718   4.34951   4.34968   4.83490   4.83494
 Alpha virt. eigenvalues --    4.83570   5.40400  11.27047
          Condensed to atoms (all electrons):
              1          2          3          4          5
     1  C    5.026263   0.394121   0.394223   0.394220   0.394233
     2  H    0.394121   0.528148  -0.024364  -0.024362  -0.024354
     3  H    0.394223  -0.024364   0.527983  -0.024290  -0.024280
     4  H    0.394220  -0.024362  -0.024290   0.527953  -0.024276
     5  H    0.394233  -0.024354  -0.024280  -0.024276   0.527912
 Mulliken atomic charges:
              1
     1  C   -0.603060
     2  H    0.150811
     3  H    0.150728
     4  H    0.150756
     5  H    0.150765
 Sum of Mulliken atomic charges =   0.00000
 Mulliken charges with hydrogens summed into heavy atoms:
              1
     1  C    0.000000
 Sum of Mulliken charges with hydrogens summed into heavy atoms =   0.00000
 APT atomic charges:
              1
     1  C   -0.008433
     2  H    0.002097
     3  H    0.002400
     4  H    0.001926
     5  H    0.002010
 Sum of APT charges=   0.00000
 APT Atomic charges with hydrogens summed into heavy atoms:
              1
     1  C    0.000000
     2  H    0.000000
     3  H    0.000000
     4  H    0.000000
     5  H    0.000000
 Sum of APT charges=   0.00000
 Electronic spatial extent (au):  <R**2>=             35.2587
 Charge=              0.0000 electrons
 Dipole moment (field-independent basis, Debye):
    X=             -0.0001    Y=              0.0001    Z=              0.0011  Tot=              0.0011
 Quadrupole moment (field-independent basis, Debye-Ang):
   XX=             -8.1716   YY=             -8.1722   ZZ=             -8.1781
   XY=             -0.0001   XZ=              0.0000   YZ=              0.0000
 Traceless Quadrupole moment (field-independent basis, Debye-Ang):
   XX=              0.0024   YY=              0.0018   ZZ=             -0.0042
   XY=             -0.0001   XZ=              0.0000   YZ=              0.0000
 Octapole moment (field-independent basis, Debye-Ang**2):
  XXX=              0.6093  YYY=              0.2117  ZZZ=              0.8915  XYY=             -0.5870
  XXY=             -0.2228  XXZ=             -0.4356  XZZ=             -0.0225  YZZ=              0.0113
  YYZ=             -0.4532  XYZ=              0.0008
 Hexadecapole moment (field-independent basis, Debye-Ang**3):
 XXXX=            -14.8023 YYYY=            -14.8232 ZZZZ=            -14.5568 XXXY=             -0.0070
 XXXZ=             -0.3357 YYYX=              0.0080 YYYZ=             -0.1333 ZZZX=             -0.0135
 ZZZY=              0.0065 XXYY=             -4.9469 XXZZ=             -5.2120 YYZZ=             -5.1916
 XXYZ=              0.1268 YYXZ=              0.3491 ZZXY=             -0.0013
 N-N= 1.341281557411D+01 E-N=-1.199184465928D+02  KE= 4.010244095974D+01
  Exact polarizability:  13.335   0.000  13.339   0.001   0.004  13.328
 Approx polarizability:  12.963   0.000  12.963   0.000   0.000  12.956
 Calling FoFJK, ICntrl=    100127 FMM=F ISym2X=0 I1Cent= 0 IOpClX= 0 NMat=1 NMatS=1 NMatT=0.
 FoFJK:  IHMeth= 1 ICntrl=100127 DoSepK=T KAlg= 1 I1Cent= 0 FoldK=F
 Full mass-weighted force constant matrix:
 Low frequencies --- -120.1780  -39.7404    0.0010    0.0012    0.0013   80.1447
 Low frequencies --- 1337.9077 1339.8383 1344.6239
 Harmonic frequencies (cm**-1), IR intensities (KM/Mole), Raman scattering
 activities (A**4/AMU), depolarization ratios for plane and unpolarized
 incident light, reduced masses (AMU), force constants (mDyne/A),
 and normal coordinates:
                     1                      2                      3
                     A                      A                      A
 Frequencies --  1337.8858              1339.8022              1344.5968
 Red. masses --     1.1792                 1.1794                 1.1794
 Frc consts  --     1.2436                 1.2474                 1.2563
 IR Inten    --    13.5987                13.7047                13.4931
  Atom  AN      X      Y      Z        X      Y      Z        X      Y      Z
     1   6     0.10  -0.04   0.07    -0.05   0.04   0.10     0.06   0.11  -0.01
     2   1    -0.48   0.21   0.04     0.25  -0.20   0.08    -0.29  -0.54  -0.01
     3   1    -0.26  -0.25  -0.14     0.22  -0.10  -0.54    -0.43  -0.15  -0.09
     4   1    -0.32   0.39  -0.24     0.38  -0.05  -0.43     0.06  -0.06   0.29
     5   1    -0.08   0.16  -0.47    -0.21  -0.15  -0.35    -0.04  -0.55  -0.02
                     4                      5                      6
                     A                      A                      A
 Frequencies --  1562.3285              1566.7635              3048.9891
 Red. masses --     1.0079                 1.0079                 1.0079
 Frc consts  --     1.4495                 1.4577                 5.5206
 IR Inten    --     0.0046                 0.0057                 0.0201
  Atom  AN      X      Y      Z        X      Y      Z        X      Y      Z
     1   6     0.00   0.00   0.00     0.00   0.00   0.00     0.00   0.00   0.00
     2   1     0.45  -0.20   0.01     0.20   0.45   0.00     0.01   0.00  -0.49
     3   1    -0.26  -0.25  -0.36    -0.40  -0.05   0.31     0.19  -0.46   0.18
     4   1    -0.37   0.33  -0.12     0.19   0.06  -0.46     0.28   0.37   0.17
     5   1     0.17   0.14   0.44    -0.01  -0.49   0.14    -0.46   0.06   0.16
                     7                      8                      9
                     A                      A                      A
 Frequencies --  3173.0216              3179.5910              3180.4724
 Red. masses --     1.1012                 1.1013                 1.1012
 Frc consts  --     6.5321                 6.5601                 6.5632
 IR Inten    --    20.8733                20.9860                21.0232
  Atom  AN      X      Y      Z        X      Y      Z        X      Y      Z
     1   6    -0.03   0.08  -0.03     0.07   0.04   0.05     0.05  -0.01  -0.07
     2   1    -0.01   0.02   0.28     0.02   0.01  -0.42     0.00   0.00   0.70
     3   1     0.31  -0.73   0.29    -0.01   0.06  -0.01     0.01   0.01  -0.02
     4   1    -0.21  -0.26  -0.13    -0.44  -0.60  -0.26     0.01   0.00  -0.01
     5   1     0.25  -0.01  -0.09    -0.40   0.06   0.15    -0.66   0.08   0.21

 -------------------
 - Thermochemistry -
 -------------------
 Temperature   298.150 Kelvin.  Pressure   1.00000 Atm.
 Atom     1 has atomic number  6 and mass  12.00000
 Atom     2 has atomic number  1 and mass   1.00783
 Atom     3 has atomic number  1 and mass   1.00783
 Atom     4 has atomic number  1 and mass   1.00783
 Atom     5 has atomic number  1 and mass   1.00783
 Molecular mass:    16.03130 amu.
 Principal axes and moments of inertia in atomic units:
                           1         2         3
     Eigenvalues --    11.43552  11.43641  11.44911
           X            1.00000   0.00001  -0.00003
           Y           -0.00001   1.00000  -0.00003
           Z            0.00003   0.00003   1.00000
 This molecule is an asymmetric top.
 Rotational symmetry number  1.
 Rotational temperatures (Kelvin)      7.57410     7.57351     7.56511
 Rotational constants (GHZ):         157.81884   157.80661   157.63160
 Zero-point vibrational energy     118032.2 (Joules/Mol)
                                   28.21038 (Kcal/Mol)
 Vibrational temperatures:   1924.92  1927.67  1934.57  2247.84  2254.22
          (Kelvin)           4386.81  4565.26  4574.72  4575.98
 
 Zero-point correction=                           0.044956 (Hartree/Particle)
 Thermal correction to Energy=                    0.047825
 Thermal correction to Enthalpy=                  0.048769
 Thermal correction to Gibbs Free Energy=         0.025290
 Sum of electronic and zero-point Energies=            -40.462352
 Sum of electronic and thermal Energies=               -40.459484
 Sum of electronic and thermal Enthalpies=             -40.458539
 Sum of electronic and thermal Free Energies=          -40.482018
 
                     E (Thermal)             CV                S
                      KCal/Mol        Cal/Mol-Kelvin    Cal/Mol-Kelvin
 Total                   30.010              6.469             49.416
 Electronic               0.000              0.000              0.000
 Translational            0.889              2.981             34.261
 Rotational               0.889              2.981             15.068
 Vibrational             28.233              0.508              0.087
                       Q            Log10(Q)             Ln(Q)
 Total Bot       0.233110D-11        -11.632440        -26.784682
 Total V=0       0.111145D+10          9.045891         20.828934
 Vib (Bot)       0.210934D-20        -20.675853        -47.607911
 Vib (V=0)       0.100572D+01          0.002478          0.005705
 Electronic      0.100000D+01          0.000000          0.000000
 Translational   0.252295D+07          6.401908         14.740939
 Rotational      0.438031D+03          2.641505          6.082290
 ***** Axes restored to original set *****
 -------------------------------------------------------------------
 Center     Atomic                   Forces (Hartrees/Bohr)
 Number     Number              X              Y              Z
 -------------------------------------------------------------------
      1        6           0.000067670    0.000082291    0.000370281
      2        1          -0.000006170    0.000005362   -0.000196149
      3        1           0.000073596   -0.000325922   -0.000094677
      4        1           0.000179401    0.000255225   -0.000013914
      5        1          -0.000314496   -0.000016956   -0.000065541
 -------------------------------------------------------------------
 Cartesian Forces:  Max     0.000370281 RMS     0.000184140

 GradGradGradGradGradGradGradGradGradGradGradGradGradGradGradGradGradGrad
 Berny optimization.
 Internal  Forces:  Max     0.000289267 RMS     0.000155949
 Search for a local minimum.
 Step number   1 out of a maximum of    2
 All quantities printed in internal units (Hartrees-Bohrs-Radians)
 Second derivative matrix not updated -- analytic derivatives used.
 The second derivative matrix:
                          R1        R2        R3        R4        A1
           R1           0.35167
           R2           0.00122   0.34938
           R3           0.00123   0.00120   0.35126
           R4           0.00121   0.00120   0.00120   0.35154
           A1           0.00194   0.00195  -0.00124  -0.00270   0.01956
           A2           0.00306  -0.00080   0.00352  -0.00563  -0.00871
           A3           0.00600  -0.00484  -0.00531   0.00405  -0.01293
           A4          -0.00078   0.00288   0.00343  -0.00570  -0.00870
           A5          -0.00479   0.00620  -0.00532   0.00428  -0.01309
           A6          -0.00540  -0.00539   0.00492   0.00569   0.02386
           D1           0.00377   0.00365   0.00273  -0.01023   0.01330
           D2          -0.00312  -0.00321   0.00802  -0.00179  -0.00804
           D3           0.00412  -0.00724   0.00407  -0.00094  -0.00400
           D4           0.00724  -0.00403  -0.00396   0.00085   0.00404
                          A2        A3        A4        A5        A6
           A2           0.03683
           A3          -0.02236   0.07139
           A4          -0.00218   0.02471   0.03707
           A5           0.02480  -0.03467  -0.02262   0.07250
           A6          -0.02836  -0.02606  -0.02824  -0.02697   0.08570
           D1           0.01054  -0.01442   0.01064  -0.01466  -0.00538
           D2           0.00920  -0.00670   0.00934  -0.00704   0.00322
           D3           0.01408   0.00042  -0.00479  -0.00735   0.00167
           D4           0.00488   0.00712  -0.01414  -0.00031  -0.00155
                          D1        D2        D3        D4
           D1           0.02923
           D2           0.00149   0.01824
           D3           0.00079   0.00913   0.01851
           D4          -0.00070  -0.00911   0.00938   0.01849
 ITU=  0
     Eigenvalues ---    0.03730   0.04201   0.06396   0.12993   0.13129
     Eigenvalues ---    0.34947   0.35113   0.35150   0.35476
 Angle between quadratic step and forces=  51.26 degrees.
 Linear search not attempted -- first point.
 Iteration  1 RMS(Cart)=  0.00099612 RMS(Int)=  0.00000177
 Iteration  2 RMS(Cart)=  0.00000104 RMS(Int)=  0.00000142
 Iteration  3 RMS(Cart)=  0.00000000 RMS(Int)=  0.00000142
 Variable       Old X    -DE/DX   Delta X   Delta X   Delta X     New X
                                 (Linear)    (Quad)   (Total)
    R1        2.06324  -0.00020   0.00000  -0.00076  -0.00076   2.06248
    R2        2.06324  -0.00028   0.00000  -0.00074  -0.00074   2.06250
    R3        2.06320  -0.00029   0.00000  -0.00070  -0.00070   2.06250
    R4        2.06315  -0.00027   0.00000  -0.00073  -0.00073   2.06241
    A1        1.90945   0.00004   0.00000   0.00160   0.00160   1.91105
    A2        1.90951   0.00004   0.00000   0.00093   0.00093   1.91044
    A3        1.90965   0.00011   0.00000   0.00155   0.00155   1.91120
    A4        1.91159  -0.00005   0.00000  -0.00178  -0.00179   1.90980
    A5        1.91177  -0.00004   0.00000  -0.00076  -0.00076   1.91101
    A6        1.91184  -0.00011   0.00000  -0.00154  -0.00154   1.91030
    D1        2.09284   0.00005   0.00000   0.00144   0.00144   2.09428
    D2       -2.09303  -0.00010   0.00000  -0.00245  -0.00245  -2.09548
    D3        2.09315   0.00005   0.00000   0.00115   0.00115   2.09430
    D4       -2.09700   0.00015   0.00000   0.00360   0.00360  -2.09340
         Item               Value     Threshold  Converged?
 Maximum Force            0.000289     0.000450     YES
 RMS     Force            0.000156     0.000300     YES
 Maximum Displacement     0.001650     0.001800     YES
 RMS     Displacement     0.000997     0.001200     YES
 Predicted change in Energy=-1.102531D-06
 Optimization completed.
    -- Stationary point found.
                           ----------------------------
                           !   Optimized Parameters   !
                           ! (Angstroms and Degrees)  !
 --------------------------                            --------------------------
 ! Name  Definition              Value          Derivative Info.                !
 --------------------------------------------------------------------------------
 ! R1    R(1,2)                  1.0918         -DE/DX =   -0.0002              !
 ! R2    R(1,3)                  1.0918         -DE/DX =   -0.0003              !
 ! R3    R(1,4)                  1.0918         -DE/DX =   -0.0003              !
 ! R4    R(1,5)                  1.0918         -DE/DX =   -0.0003              !
 ! A1    A(2,1,3)              109.4032         -DE/DX =    0.0                 !
 ! A2    A(2,1,4)              109.4069         -DE/DX =    0.0                 !
 ! A3    A(2,1,5)              109.4146         -DE/DX =    0.0001              !
 ! A4    A(3,1,4)              109.5261         -DE/DX =    0.0                 !
 ! A5    A(3,1,5)              109.5361         -DE/DX =    0.0                 !
 ! A6    A(4,1,5)              109.5402         -DE/DX =   -0.0001              !
 ! D1    D(2,1,4,3)            119.9109         -DE/DX =    0.0                 !
 ! D2    D(2,1,5,3)           -119.9217         -DE/DX =   -0.0001              !
 ! D3    D(2,1,5,4)            119.9288         -DE/DX =    0.0001              !
 ! D4    D(3,1,5,4)           -120.1495         -DE/DX =    0.0001              !
 --------------------------------------------------------------------------------
 GradGradGradGradGradGradGradGradGradGradGradGradGradGradGradGradGradGrad

 1\1\GINC-PLUTO\Freq\RwB97XD\6-31G(2df,p)\C1H4\JMSOLANO\25-Apr-2025\0\\
 #N Geom=AllCheck Guess=TCheck SCRF=Check wb97xd/6-31g(2df,p) Freq\\G4-
 B3LYP ch4\\0,1\C,0.000034,-0.000016,-0.000341\H,-0.013801,0.006884,1.0
 91369\H,-0.40193,0.943784,-0.374154\H,-0.61158,-0.827351,-0.365677\H,1
 .027106,-0.123221,-0.349489\\Version=EM64L-G09RevB.01\State=1-A\HF=-40
 .5073082\RMSD=1.187e-10\RMSF=1.841e-04\ZeroPoint=0.0449561\Thermal=0.0
 478246\Dipole=-0.0000448,0.0000329,0.0004459\DipoleDeriv=-0.0084851,0.
 0002254,0.0002453,0.000443,-0.0079744,0.0004424,0.0002104,0.0000469,-0
 .0088386,0.0691624,-0.0000818,0.0025507,0.000119,0.0692104,-0.0018449,
 0.0025478,-0.0012702,-0.1320827,0.0418228,0.0638484,-0.0254592,0.06336
 76,-0.0807097,0.0593129,-0.02508,0.0588482,0.0460873,0.0060519,-0.0851
 901,-0.0377451,-0.0846738,-0.0462787,-0.050788,-0.0377264,-0.0504613,0
 .0460046,-0.1085521,0.021198,0.0604082,0.0207443,0.0657524,-0.0071223,
 0.0600482,-0.0071636,0.0488295\Polar=13.3348256,0.0002275,13.3388575,0
 .0013526,0.0038488,13.3276508\PG=C01 [X(C1H4)]\NImag=0\\0.55520904,0.0
 0060659,0.55397955,-0.00031801,0.00078672,0.55431879,-0.04475986,0.000
 00998,0.00364922,0.04437202,-0.00000268,-0.04472749,-0.00172255,-0.000
 04147,0.04434285,0.00362359,-0.00179362,-0.32606841,-0.00394051,0.0019
 3727,0.35161095,-0.08389606,0.08870017,-0.03524968,-0.00104705,-0.0017
 4876,0.00076863,0.08690512,0.08870338,-0.25326298,0.08233959,-0.001450
 37,0.00164115,-0.00164815,-0.09696954,0.27216079,-0.03525250,0.0824135
 8,-0.07815302,-0.01238638,0.02898809,-0.00881520,0.03852843,-0.0900815
 9,0.08084572,-0.13284181,-0.11914513,-0.05275504,-0.00020144,0.0021795
 2,0.00111519,0.00732824,0.01041440,0.00562918,0.14051225,-0.11918131,-
 0.20619544,-0.07112121,0.00172440,0.00052615,0.00132887,-0.01659995,-0
 .01871720,-0.01044618,0.13017508,0.22066775,-0.05275544,-0.07114359,-0
 .07702827,-0.01887574,-0.02543778,-0.00862211,0.00808207,0.00907055,0.
 00317590,0.05763576,0.07771991,0.07962894,-0.29371131,0.02982840,0.084
 67351,0.00163633,-0.00038662,-0.00156690,-0.00929025,-0.00069787,0.003
 48127,-0.01479724,0.00388178,0.00591334,0.31616247,0.02987403,-0.04979
 363,-0.01028256,-0.00024254,-0.00178267,0.00017563,0.02661807,-0.00182
 176,-0.01087389,-0.02362387,0.00371874,0.00979092,-0.03262569,0.049679
 32,0.08470237,-0.01026309,-0.07306908,0.03155341,-0.00376502,-0.008105
 24,-0.01212945,0.00031959,0.00294660,-0.01162509,0.00251862,0.00284554
 ,-0.09250123,0.01118990,0.07538218\\-0.00006767,-0.00008229,-0.0003702
 8,0.00000617,-0.00000536,0.00019615,-0.00007360,0.00032592,0.00009468,
 -0.00017940,-0.00025523,0.00001391,0.00031450,0.00001696,0.00006554\\\
 @


 The chemist is a guest at the physicist's table and
 frequently dines well.
                   -- Richard Bersohn
 Job cpu time:  0 days  0 hours  0 minutes 33.0 seconds.
 File lengths (MBytes):  RWF=      5 Int=      0 D2E=      0 Chk=      1 Scr=      1
 Normal termination of Gaussian 09 at Fri Apr 25 13:42:14 2025.
 Initial command:
 /usr/local/g09/l1.exe /home/g09scr/Gau-12218.inp -scrdir=/home/g09scr/
 Entering Link 1 = /usr/local/g09/l1.exe PID=     12343.
  
 Copyright (c) 1988,1990,1992,1993,1995,1998,2003,2009,2010,
            Gaussian, Inc.  All Rights Reserved.
  
 This is part of the Gaussian(R) 09 program.  It is based on
 the Gaussian(R) 03 system (copyright 2003, Gaussian, Inc.),
 the Gaussian(R) 98 system (copyright 1998, Gaussian, Inc.),
 the Gaussian(R) 94 system (copyright 1995, Gaussian, Inc.),
 the Gaussian 92(TM) system (copyright 1992, Gaussian, Inc.),
 the Gaussian 90(TM) system (copyright 1990, Gaussian, Inc.),
 the Gaussian 88(TM) system (copyright 1988, Gaussian, Inc.),
 the Gaussian 86(TM) system (copyright 1986, Carnegie Mellon
 University), and the Gaussian 82(TM) system (copyright 1983,
 Carnegie Mellon University). Gaussian is a federally registered
 trademark of Gaussian, Inc.
  
 This software contains proprietary and confidential information,
 including trade secrets, belonging to Gaussian, Inc.
  
 This software is provided under written license and may be
 used, copied, transmitted, or stored only in accord with that
 written license.
  
 The following legend is applicable only to US Government
 contracts under FAR:
  
                    RESTRICTED RIGHTS LEGEND
  
 Use, reproduction and disclosure by the US Government is
 subject to restrictions as set forth in subparagraphs (a)
 and (c) of the Commercial Computer Software - Restricted
 Rights clause in FAR 52.227-19.
  
 Gaussian, Inc.
 340 Quinnipiac St., Bldg. 40, Wallingford CT 06492
  
  
 ---------------------------------------------------------------
 Warning -- This program may not be used in any manner that
 competes with the business of Gaussian, Inc. or will provide
 assistance to any competitor of Gaussian, Inc.  The licensee
 of this program is prohibited from giving any competitor of
 Gaussian, Inc. access to this program.  By using this program,
 the user acknowledges that Gaussian, Inc. is engaged in the
 business of creating and licensing software in the field of
 computational chemistry and represents and warrants to the
 licensee that it is not a competitor of Gaussian, Inc. and that
 it will not use this program in any manner prohibited above.
 ---------------------------------------------------------------
  

 Cite this work as:
 Gaussian 09, Revision B.01,
 M. J. Frisch, G. W. Trucks, H. B. Schlegel, G. E. Scuseria, 
 M. A. Robb, J. R. Cheeseman, G. Scalmani, V. Barone, B. Mennucci, 
 G. A. Petersson, H. Nakatsuji, M. Caricato, X. Li, H. P. Hratchian, 
 A. F. Izmaylov, J. Bloino, G. Zheng, J. L. Sonnenberg, M. Hada, 
 M. Ehara, K. Toyota, R. Fukuda, J. Hasegawa, M. Ishida, T. Nakajima, 
 Y. Honda, O. Kitao, H. Nakai, T. Vreven, J. A. Montgomery, Jr., 
 J. E. Peralta, F. Ogliaro, M. Bearpark, J. J. Heyd, E. Brothers, 
 K. N. Kudin, V. N. Staroverov, T. Keith, R. Kobayashi, J. Normand, 
 K. Raghavachari, A. Rendell, J. C. Burant, S. S. Iyengar, J. Tomasi, 
 M. Cossi, N. Rega, J. M. Millam, M. Klene, J. E. Knox, J. B. Cross, 
 V. Bakken, C. Adamo, J. Jaramillo, R. Gomperts, R. E. Stratmann, 
 O. Yazyev, A. J. Austin, R. Cammi, C. Pomelli, J. W. Ochterski, 
 R. L. Martin, K. Morokuma, V. G. Zakrzewski, G. A. Voth, 
 P. Salvador, J. J. Dannenberg, S. Dapprich, A. D. Daniels, 
 O. Farkas, J. B. Foresman, J. V. Ortiz, J. Cioslowski, 
 and D. J. Fox, Gaussian, Inc., Wallingford CT, 2010.
 
 ******************************************
 Gaussian 09:  EM64L-G09RevB.01 12-Aug-2010
                25-Apr-2025 
 ******************************************
 %chk=ch4-wb97xd.chk
 %nprocshared=4
 Will use up to    4 processors via shared memory.
 %mem=30GB
 -----------------------------------------------------------------
 #N Geom=AllCheck Guess=TCheck SCRF=Check CCSD(T,E4T,FrzG4)/GTBas1
 -----------------------------------------------------------------
 1/29=7,38=1,40=1/1;
 2/12=2,40=1/2;
 3/5=33,11=9,14=-4,16=1,25=1,30=1,70=2,116=-2/1,2,3;
 4/5=101/1;
 5/5=2/2;
 8/6=4,9=120000,10=6/1,4;
 9/5=7,14=4/13;
 6/7=2,8=2,9=2,10=2/1;
 99/5=1,9=1/99;
 ------------
 G4-B3LYP ch4
 ------------
 Redundant internal coordinates taken from checkpoint file:
 ch4-wb97xd.chk
 Charge =  0 Multiplicity = 1
 C,0,0.000034,-0.000016,-0.000341
 H,0,-0.013801,0.006884,1.091369
 H,0,-0.40193,0.943784,-0.374154
 H,0,-0.61158,-0.827351,-0.365677
 H,0,1.027106,-0.123221,-0.349489
 Recover connectivity data from disk.
                          Input orientation:                          
 ---------------------------------------------------------------------
 Center     Atomic      Atomic             Coordinates (Angstroms)
 Number     Number       Type             X           Y           Z
 ---------------------------------------------------------------------
      1          6           0        0.000034   -0.000016   -0.000341
      2          1           0       -0.013801    0.006884    1.091369
      3          1           0       -0.401930    0.943784   -0.374154
      4          1           0       -0.611580   -0.827351   -0.365677
      5          1           0        1.027106   -0.123221   -0.349489
 ---------------------------------------------------------------------
                    Distance matrix (angstroms):
                    1          2          3          4          5
     1  C    0.000000
     2  H    1.091819   0.000000
     3  H    1.091819   1.782185   0.000000
     4  H    1.091799   1.782210   1.783520   0.000000
     5  H    1.091770   1.782270   1.783606   1.783635   0.000000
 Stoichiometry    CH4
 Framework group  C1[X(CH4)]
 Deg. of freedom     9
 Full point group                 C1      NOp   1
 Largest Abelian subgroup         C1      NOp   1
 Largest concise Abelian subgroup C1      NOp   1
                         Standard orientation:                         
 ---------------------------------------------------------------------
 Center     Atomic      Atomic             Coordinates (Angstroms)
 Number     Number       Type             X           Y           Z
 ---------------------------------------------------------------------
      1          6           0        0.000034   -0.000016   -0.000341
      2          1           0       -0.013796    0.006894    1.091369
      3          1           0       -0.401226    0.944083   -0.374154
      4          1           0       -0.612197   -0.826895   -0.365677
      5          1           0        1.027014   -0.123987   -0.349489
 ---------------------------------------------------------------------
 Rotational constants (GHZ):    157.8188413    157.8066082    157.6316046
 Standard basis: GTBas1 (6D, 7F)
 There are    23 symmetry adapted basis functions of A   symmetry.
 Integral buffers will be    131072 words long.
 Raffenetti 1 integral format.
 Two-electron integral symmetry is turned on.
    23 basis functions,    44 primitive gaussians,    23 cartesian basis functions
     5 alpha electrons        5 beta electrons
       nuclear repulsion energy        13.4132167626 Hartrees.
 NAtoms=    5 NActive=    5 NUniq=    5 SFac= 1.00D+00 NAtFMM=   50 NAOKFM=F Big=F
 One-electron integrals computed using PRISM.
 NBasis=    23 RedAO= T  NBF=    23
 NBsUse=    23 1.00D-06 NBFU=    23
 Initial guess read from the checkpoint file:  ch4-wb97xd.chk
 B after Tr=     0.000000    0.000000    0.000000
         Rot=    1.000000    0.000000    0.000000    0.000000 Ang=   0.00 deg.
 Initial guess orbital symmetries:
       Occupied  (A) (A) (A) (A) (A)
       Virtual   (A) (A) (A) (A) (A) (A) (A) (A) (A) (A) (A) (A)
                 (A) (A) (A) (A) (A) (A)
 Requested convergence on RMS density matrix=1.00D-08 within 128 cycles.
 Requested convergence on MAX density matrix=1.00D-06.
 Requested convergence on             energy=1.00D-06.
 No special actions if energy rises.
 Keep R1 ints in memory in canonical form, NReq=878294.
 SCF Done:  E(RHF) =  -40.1949893437     A.U. after    7 cycles
             Convg  =    0.4323D-08             -V/T =  2.0014
 ExpMin= 1.61D-01 ExpMax= 3.05D+03 ExpMxC= 4.57D+02 IAcc=1 IRadAn=         1 AccDes= 0.00D+00
 HarFok:  IExCor=  205 AccDes= 0.00D+00 IRadAn=         1 IDoV=-2
 ScaDFX=  1.000000  1.000000  1.000000  1.000000
 Range of M.O.s used for correlation:     2    23
 NBasis=    23 NAE=     5 NBE=     5 NFC=     1 NFV=     0
 NROrb=     22 NOA=     4 NOB=     4 NVA=    18 NVB=    18
 Semi-Direct transformation.
 ModeAB=           2 MOrb=             4 LenV=    4026361750
 LASXX=        17571 LTotXX=       17571 LenRXX=       17571
 LTotAB=       20026 MaxLAS=       24288 LenRXY=       24288
 NonZer=       35142 LenScr=      785920 LnRSAI=           0
 LnScr1=           0 LExtra=           0 Total=       827779
 MaxDsk=          -1 SrtSym=           F ITran=            4
 JobTyp=0 Pass  1:  I=   1 to   4.
 (rs|ai) integrals will be sorted in core.
 SymMOI:  orbitals are not symmetric.
 Spin components of T(2) and E(2):
     alpha-alpha T2 =       0.4439527328D-02 E2=     -0.1353211188D-01
     alpha-beta  T2 =       0.3672526402D-01 E2=     -0.1104903327D+00
     beta-beta   T2 =       0.4439527328D-02 E2=     -0.1353211188D-01
 ANorm=    0.1022547954D+01
 E2 =    -0.1375545565D+00 EUMP2 =    -0.40332543900168D+02
 R2 and R3 integrals will be kept in memory, NReq=      896452.
 Iterations=  50 Convergence= 0.100D-06
 Iteration Nr.   1
 **********************
 DD1Dir will call FoFMem   1 times, MxPair=        20
 NAB=    10 NAA=     0 NBB=     0.
 MP4(R+Q)=  0.15458524D-02
 T4(AAA)= -0.44198712D-04
 T4(AAB)= -0.12138472D-02
 Time for triples=        0.02 seconds.
 MP4(T)=   -0.25160919D-02
 E3=       -0.16082212D-01        EUMP3=      -0.40348626112D+02
 E4(DQ)=   -0.27047474D-02        UMP4(DQ)=   -0.40351330860D+02
 E4(SDQ)=  -0.36823027D-02        UMP4(SDQ)=  -0.40352308415D+02
 E4(SDTQ)= -0.61983946D-02        UMP4(SDTQ)= -0.40354824507D+02
 DE(Corr)= -0.15197672     E(Corr)=     -40.346966060    
 NORM(A)=   0.10292051D+01
 Iteration Nr.   2
 **********************
 DD1Dir will call FoFMem   1 times, MxPair=        20
 NAB=    10 NAA=     0 NBB=     0.
 DE(Corr)= -0.15670701     E(CORR)=     -40.351696349     Delta=-4.73D-03
 NORM(A)=   0.10312362D+01
 Iteration Nr.   3
 **********************
 DD1Dir will call FoFMem   1 times, MxPair=        20
 NAB=    10 NAA=     0 NBB=     0.
 DE(Corr)= -0.15778556     E(CORR)=     -40.352774905     Delta=-1.08D-03
 NORM(A)=   0.10315958D+01
 Iteration Nr.   4
 **********************
 DD1Dir will call FoFMem   1 times, MxPair=        20
 NAB=    10 NAA=     0 NBB=     0.
 DE(Corr)= -0.15804064     E(CORR)=     -40.353029985     Delta=-2.55D-04
 NORM(A)=   0.10316385D+01
 Iteration Nr.   5
 **********************
 DD1Dir will call FoFMem   1 times, MxPair=        20
 NAB=    10 NAA=     0 NBB=     0.
 DE(Corr)= -0.15805715     E(CORR)=     -40.353046490     Delta=-1.65D-05
 NORM(A)=   0.10316372D+01
 Iteration Nr.   6
 **********************
 DD1Dir will call FoFMem   1 times, MxPair=        20
 NAB=    10 NAA=     0 NBB=     0.
 DE(Corr)= -0.15805675     E(CORR)=     -40.353046090     Delta= 4.00D-07
 NORM(A)=   0.10316374D+01
 Iteration Nr.   7
 **********************
 DD1Dir will call FoFMem   1 times, MxPair=        20
 NAB=    10 NAA=     0 NBB=     0.
 DE(Corr)= -0.15805687     E(CORR)=     -40.353046215     Delta=-1.26D-07
 NORM(A)=   0.10316373D+01
 Iteration Nr.   8
 **********************
 DD1Dir will call FoFMem   1 times, MxPair=        20
 NAB=    10 NAA=     0 NBB=     0.
 DE(Corr)= -0.15805688     E(CORR)=     -40.353046226     Delta=-1.10D-08
 NORM(A)=   0.10316373D+01
 Largest amplitude= 4.65D-02
 T4(AAA)= -0.37343840D-04
 T4(AAB)= -0.14961351D-02
 T5(AAA)=  0.47464333D-05
 T5(AAB)=  0.10404973D-03
 Time for triples=        0.02 seconds.
 T4(CCSD)= -0.30669579D-02
 T5(CCSD)=  0.21759233D-03
 CCSD(T)= -0.40355895592D+02

 **********************************************************************

            Population analysis using the SCF density.

 **********************************************************************

 Orbital symmetries:
       Occupied  (A) (A) (A) (A) (A)
       Virtual   (A) (A) (A) (A) (A) (A) (A) (A) (A) (A) (A) (A)
                 (A) (A) (A) (A) (A) (A)
 The electronic state is 1-A.
 Alpha  occ. eigenvalues --  -11.20893  -0.94123  -0.54423  -0.54419  -0.54383
 Alpha virt. eigenvalues --    0.25544   0.32550   0.32557   0.32559   0.73101
 Alpha virt. eigenvalues --    0.73119   0.73119   1.17679   1.17716   1.17721
 Alpha virt. eigenvalues --    1.23851   1.31192   1.94229   1.94229   2.57976
 Alpha virt. eigenvalues --    2.57977   2.58034   4.60537
          Condensed to atoms (all electrons):
              1          2          3          4          5
     1  C    5.108443   0.387426   0.387443   0.387445   0.387449
     2  H    0.387426   0.525908  -0.025934  -0.025931  -0.025923
     3  H    0.387443  -0.025934   0.525498  -0.025795  -0.025784
     4  H    0.387445  -0.025931  -0.025795   0.525479  -0.025780
     5  H    0.387449  -0.025923  -0.025784  -0.025780   0.525440
 Mulliken atomic charges:
              1
     1  C   -0.658206
     2  H    0.164455
     3  H    0.164572
     4  H    0.164581
     5  H    0.164598
 Sum of Mulliken atomic charges =   0.00000
 Mulliken charges with hydrogens summed into heavy atoms:
              1
     1  C    0.000000
 Sum of Mulliken charges with hydrogens summed into heavy atoms =   0.00000
 Electronic spatial extent (au):  <R**2>=             35.7570
 Charge=              0.0000 electrons
 Dipole moment (field-independent basis, Debye):
    X=             -0.0001    Y=              0.0000    Z=              0.0009  Tot=              0.0009
 Quadrupole moment (field-independent basis, Debye-Ang):
   XX=             -8.3949   YY=             -8.3955   ZZ=             -8.4017
   XY=              0.0000   XZ=              0.0000   YZ=              0.0000
 Traceless Quadrupole moment (field-independent basis, Debye-Ang):
   XX=              0.0024   YY=              0.0019   ZZ=             -0.0043
   XY=              0.0000   XZ=              0.0000   YZ=              0.0000
 Octapole moment (field-independent basis, Debye-Ang**2):
  XXX=              0.5252  YYY=              0.1824  ZZZ=              0.7676  XYY=             -0.5060
  XXY=             -0.1921  XXZ=             -0.3751  XZZ=             -0.0193  YZZ=              0.0097
  YYZ=             -0.3903  XYZ=              0.0007
 Hexadecapole moment (field-independent basis, Debye-Ang**3):
 XXXX=            -15.3136 YYYY=            -15.3317 ZZZZ=            -15.1022 XXXY=             -0.0059
 XXXZ=             -0.2901 YYYX=              0.0070 YYYZ=             -0.1151 ZZZX=             -0.0117
 ZZZY=              0.0057 XXYY=             -5.1156 XXZZ=             -5.3446 YYZZ=             -5.3270
 XXYZ=              0.1095 YYXZ=              0.3016 ZZXY=             -0.0011
 N-N= 1.341321676264D+01 E-N=-1.197884280109D+02  KE= 4.013682363636D+01
 1\1\GINC-PLUTO\SP\RCCSD(T)\GTBas1\C1H4\JMSOLANO\25-Apr-2025\0\\#N Geom
 =AllCheck Guess=TCheck SCRF=Check CCSD(T,E4T,FrzG4)/GTBas1\\G4-B3LYP c
 h4\\0,1\C,0,0.000034,-0.000016,-0.000341\H,0,-0.013801,0.006884,1.0913
 69\H,0,-0.40193,0.943784,-0.374154\H,0,-0.61158,-0.827351,-0.365677\H,
 0,1.027106,-0.123221,-0.349489\\Version=EM64L-G09RevB.01\State=1-A\HF=
 -40.1949893\MP2=-40.3325439\MP3=-40.3486261\MP4D=-40.3528767\MP4DQ=-40
 .3513309\MP4SDTQ=-40.3548245\MP4SDQ=-40.3523084\CCSD=-40.3530462\CCSD(
 T)=-40.3558956\RMSD=4.323e-09\PG=C01 [X(C1H4)]\\@


 Mondays are the potholes in the road of life.
                                -- Tom Wilson
 Job cpu time:  0 days  0 hours  0 minutes  1.5 seconds.
 File lengths (MBytes):  RWF=     13 Int=      0 D2E=      0 Chk=      1 Scr=      1
 Normal termination of Gaussian 09 at Fri Apr 25 13:42:15 2025.
 Initial command:
 /usr/local/g09/l1.exe /home/g09scr/Gau-12218.inp -scrdir=/home/g09scr/
 Entering Link 1 = /usr/local/g09/l1.exe PID=     12384.
  
 Copyright (c) 1988,1990,1992,1993,1995,1998,2003,2009,2010,
            Gaussian, Inc.  All Rights Reserved.
  
 This is part of the Gaussian(R) 09 program.  It is based on
 the Gaussian(R) 03 system (copyright 2003, Gaussian, Inc.),
 the Gaussian(R) 98 system (copyright 1998, Gaussian, Inc.),
 the Gaussian(R) 94 system (copyright 1995, Gaussian, Inc.),
 the Gaussian 92(TM) system (copyright 1992, Gaussian, Inc.),
 the Gaussian 90(TM) system (copyright 1990, Gaussian, Inc.),
 the Gaussian 88(TM) system (copyright 1988, Gaussian, Inc.),
 the Gaussian 86(TM) system (copyright 1986, Carnegie Mellon
 University), and the Gaussian 82(TM) system (copyright 1983,
 Carnegie Mellon University). Gaussian is a federally registered
 trademark of Gaussian, Inc.
  
 This software contains proprietary and confidential information,
 including trade secrets, belonging to Gaussian, Inc.
  
 This software is provided under written license and may be
 used, copied, transmitted, or stored only in accord with that
 written license.
  
 The following legend is applicable only to US Government
 contracts under FAR:
  
                    RESTRICTED RIGHTS LEGEND
  
 Use, reproduction and disclosure by the US Government is
 subject to restrictions as set forth in subparagraphs (a)
 and (c) of the Commercial Computer Software - Restricted
 Rights clause in FAR 52.227-19.
  
 Gaussian, Inc.
 340 Quinnipiac St., Bldg. 40, Wallingford CT 06492
  
  
 ---------------------------------------------------------------
 Warning -- This program may not be used in any manner that
 competes with the business of Gaussian, Inc. or will provide
 assistance to any competitor of Gaussian, Inc.  The licensee
 of this program is prohibited from giving any competitor of
 Gaussian, Inc. access to this program.  By using this program,
 the user acknowledges that Gaussian, Inc. is engaged in the
 business of creating and licensing software in the field of
 computational chemistry and represents and warrants to the
 licensee that it is not a competitor of Gaussian, Inc. and that
 it will not use this program in any manner prohibited above.
 ---------------------------------------------------------------
  

 Cite this work as:
 Gaussian 09, Revision B.01,
 M. J. Frisch, G. W. Trucks, H. B. Schlegel, G. E. Scuseria, 
 M. A. Robb, J. R. Cheeseman, G. Scalmani, V. Barone, B. Mennucci, 
 G. A. Petersson, H. Nakatsuji, M. Caricato, X. Li, H. P. Hratchian, 
 A. F. Izmaylov, J. Bloino, G. Zheng, J. L. Sonnenberg, M. Hada, 
 M. Ehara, K. Toyota, R. Fukuda, J. Hasegawa, M. Ishida, T. Nakajima, 
 Y. Honda, O. Kitao, H. Nakai, T. Vreven, J. A. Montgomery, Jr., 
 J. E. Peralta, F. Ogliaro, M. Bearpark, J. J. Heyd, E. Brothers, 
 K. N. Kudin, V. N. Staroverov, T. Keith, R. Kobayashi, J. Normand, 
 K. Raghavachari, A. Rendell, J. C. Burant, S. S. Iyengar, J. Tomasi, 
 M. Cossi, N. Rega, J. M. Millam, M. Klene, J. E. Knox, J. B. Cross, 
 V. Bakken, C. Adamo, J. Jaramillo, R. Gomperts, R. E. Stratmann, 
 O. Yazyev, A. J. Austin, R. Cammi, C. Pomelli, J. W. Ochterski, 
 R. L. Martin, K. Morokuma, V. G. Zakrzewski, G. A. Voth, 
 P. Salvador, J. J. Dannenberg, S. Dapprich, A. D. Daniels, 
 O. Farkas, J. B. Foresman, J. V. Ortiz, J. Cioslowski, 
 and D. J. Fox, Gaussian, Inc., Wallingford CT, 2010.
 
 ******************************************
 Gaussian 09:  EM64L-G09RevB.01 12-Aug-2010
                25-Apr-2025 
 ******************************************
 %chk=ch4-wb97xd.chk
 %nprocshared=4
 Will use up to    4 processors via shared memory.
 %mem=30GB
 ---------------------------------------------------------
 #N Geom=AllCheck Guess=TCheck SCRF=Check MP4=FrzG4/GTBas2
 ---------------------------------------------------------
 1/29=7,38=1,40=1/1;
 2/12=2,40=1/2;
 3/5=34,11=9,14=-4,16=1,25=1,30=1,70=2,116=-2/1,2,3;
 4/5=101/1;
 5/5=2/2;
 8/6=4,9=120000,10=6/1,4;
 9/5=5/13;
 6/7=2,8=2,9=2,10=2/1;
 99/5=1,9=1/99;
 ------------
 G4-B3LYP ch4
 ------------
 Redundant internal coordinates taken from checkpoint file:
 ch4-wb97xd.chk
 Charge =  0 Multiplicity = 1
 C,0,0.000034,-0.000016,-0.000341
 H,0,-0.013801,0.006884,1.091369
 H,0,-0.40193,0.943784,-0.374154
 H,0,-0.61158,-0.827351,-0.365677
 H,0,1.027106,-0.123221,-0.349489
 Recover connectivity data from disk.
                          Input orientation:                          
 ---------------------------------------------------------------------
 Center     Atomic      Atomic             Coordinates (Angstroms)
 Number     Number       Type             X           Y           Z
 ---------------------------------------------------------------------
      1          6           0        0.000034   -0.000016   -0.000341
      2          1           0       -0.013801    0.006884    1.091369
      3          1           0       -0.401930    0.943784   -0.374154
      4          1           0       -0.611580   -0.827351   -0.365677
      5          1           0        1.027106   -0.123221   -0.349489
 ---------------------------------------------------------------------
                    Distance matrix (angstroms):
                    1          2          3          4          5
     1  C    0.000000
     2  H    1.091819   0.000000
     3  H    1.091819   1.782185   0.000000
     4  H    1.091799   1.782210   1.783520   0.000000
     5  H    1.091770   1.782270   1.783606   1.783635   0.000000
 Stoichiometry    CH4
 Framework group  C1[X(CH4)]
 Deg. of freedom     9
 Full point group                 C1      NOp   1
 Largest Abelian subgroup         C1      NOp   1
 Largest concise Abelian subgroup C1      NOp   1
                         Standard orientation:                         
 ---------------------------------------------------------------------
 Center     Atomic      Atomic             Coordinates (Angstroms)
[...]
 Alpha virt. eigenvalues --    6.42136   6.42189   6.42194   6.59283   7.07727
 Alpha virt. eigenvalues --    7.07730   7.08331   7.08353   7.08583   7.62748
 Alpha virt. eigenvalues --    7.62748   7.62766   7.67898   7.68042   7.68045
 Alpha virt. eigenvalues --    7.99841   7.99982   8.00010   8.01104   9.89880
 Alpha virt. eigenvalues --   10.33343  10.33353  10.33393  23.62546
          Condensed to atoms (all electrons):
              1          2          3          4          5
     1  C    4.696630   0.415362   0.415445   0.415448   0.415454
     2  H    0.415362   0.570486  -0.025135  -0.025132  -0.025127
     3  H    0.415445  -0.025135   0.570158  -0.025037  -0.025028
     4  H    0.415448  -0.025132  -0.025037   0.570149  -0.025025
     5  H    0.415454  -0.025127  -0.025028  -0.025025   0.570128
 Mulliken atomic charges:
              1
     1  C   -0.358339
     2  H    0.089547
     3  H    0.089597
     4  H    0.089597
     5  H    0.089598
 Sum of Mulliken atomic charges =   0.00000
 Mulliken charges with hydrogens summed into heavy atoms:
              1
     1  C    0.000000
 Sum of Mulliken charges with hydrogens summed into heavy atoms =   0.00000
 Electronic spatial extent (au):  <R**2>=             35.8158
 Charge=              0.0000 electrons
 Dipole moment (field-independent basis, Debye):
    X=             -0.0001    Y=              0.0000    Z=              0.0009  Tot=              0.0009
 Quadrupole moment (field-independent basis, Debye-Ang):
   XX=             -8.4212   YY=             -8.4218   ZZ=             -8.4282
   XY=              0.0000   XZ=              0.0000   YZ=              0.0000
 Traceless Quadrupole moment (field-independent basis, Debye-Ang):
   XX=              0.0025   YY=              0.0020   ZZ=             -0.0045
   XY=              0.0000   XZ=              0.0000   YZ=              0.0000
 Octapole moment (field-independent basis, Debye-Ang**2):
  XXX=              0.5627  YYY=              0.1954  ZZZ=              0.8226  XYY=             -0.5421
  XXY=             -0.2058  XXZ=             -0.4020  XZZ=             -0.0207  YZZ=              0.0104
  YYZ=             -0.4183  XYZ=              0.0007
 Hexadecapole moment (field-independent basis, Debye-Ang**3):
 XXXX=            -15.8727 YYYY=            -15.8953 ZZZZ=            -15.6130 XXXY=             -0.0073
 XXXZ=             -0.3592 YYYX=              0.0087 YYYZ=             -0.1426 ZZZX=             -0.0145
 ZZZY=              0.0070 XXYY=             -5.3047 XXZZ=             -5.5888 YYZZ=             -5.5671
 XXYZ=              0.1357 YYXZ=              0.3735 ZZXY=             -0.0013
 N-N= 1.341321676264D+01 E-N=-1.198482801466D+02  KE= 4.015342209964D+01
 1\1\GINC-PLUTO\SP\RHF\GFHFB1\C1H4\JMSOLANO\25-Apr-2025\0\\#N Geom=AllC
 heck Guess=TCheck SCRF=Check HF/GFHFB1 SCF=Tight\\G4-B3LYP ch4\\0,1\C,
 0,0.000034,-0.000016,-0.000341\H,0,-0.013801,0.006884,1.091369\H,0,-0.
 40193,0.943784,-0.374154\H,0,-0.61158,-0.827351,-0.365677\H,0,1.027106
 ,-0.123221,-0.349489\\Version=EM64L-G09RevB.01\State=1-A\HF=-40.215835
 \RMSD=8.969e-09\Dipole=-0.0000211,0.000008,0.0003583\Quadrupole=0.0018
 856,0.0014532,-0.0033388,0.0000097,-0.0000346,0.0000202\PG=C01 [X(C1H4
 )]\\@


     "IF I COULD JUST GET IT ON PAPER"
 LIFE AND INK, THEY RUN OUT AT THE SAME TIME,
 OR SO SAID MY OLD FRIEND THE SQUID.
     -- JIMMY BUFFETT, 1981
 Job cpu time:  0 days  0 hours  0 minutes  5.1 seconds.
 File lengths (MBytes):  RWF=     10 Int=      0 D2E=      0 Chk=      2 Scr=      1
 Normal termination of Gaussian 09 at Fri Apr 25 13:42:18 2025.
 Initial command:
 /usr/local/g09/l1.exe /home/g09scr/Gau-12218.inp -scrdir=/home/g09scr/
 Entering Link 1 = /usr/local/g09/l1.exe PID=     12536.
  
 Copyright (c) 1988,1990,1992,1993,1995,1998,2003,2009,2010,
            Gaussian, Inc.  All Rights Reserved.
  
 This is part of the Gaussian(R) 09 program.  It is based on
 the Gaussian(R) 03 system (copyright 2003, Gaussian, Inc.),
 the Gaussian(R) 98 system (copyright 1998, Gaussian, Inc.),
 the Gaussian(R) 94 system (copyright 1995, Gaussian, Inc.),
 the Gaussian 92(TM) system (copyright 1992, Gaussian, Inc.),
 the Gaussian 90(TM) system (copyright 1990, Gaussian, Inc.),
 the Gaussian 88(TM) system (copyright 1988, Gaussian, Inc.),
 the Gaussian 86(TM) system (copyright 1986, Carnegie Mellon
 University), and the Gaussian 82(TM) system (copyright 1983,
 Carnegie Mellon University). Gaussian is a federally registered
 trademark of Gaussian, Inc.
  
 This software contains proprietary and confidential information,
 including trade secrets, belonging to Gaussian, Inc.
  
 This software is provided under written license and may be
 used, copied, transmitted, or stored only in accord with that
 written license.
  
 The following legend is applicable only to US Government
 contracts under FAR:
  
                    RESTRICTED RIGHTS LEGEND
  
 Use, reproduction and disclosure by the US Government is
 subject to restrictions as set forth in subparagraphs (a)
 and (c) of the Commercial Computer Software - Restricted
 Rights clause in FAR 52.227-19.
  
 Gaussian, Inc.
 340 Quinnipiac St., Bldg. 40, Wallingford CT 06492
  
  
 ---------------------------------------------------------------
 Warning -- This program may not be used in any manner that
 competes with the business of Gaussian, Inc. or will provide
 assistance to any competitor of Gaussian, Inc.  The licensee
 of this program is prohibited from giving any competitor of
 Gaussian, Inc. access to this program.  By using this program,
 the user acknowledges that Gaussian, Inc. is engaged in the
 business of creating and licensing software in the field of
 computational chemistry and represents and warrants to the
 licensee that it is not a competitor of Gaussian, Inc. and that
 it will not use this program in any manner prohibited above.
 ---------------------------------------------------------------
  

 Cite this work as:
 Gaussian 09, Revision B.01,
 M. J. Frisch, G. W. Trucks, H. B. Schlegel, G. E. Scuseria, 
 M. A. Robb, J. R. Cheeseman, G. Scalmani, V. Barone, B. Mennucci, 
 G. A. Petersson, H. Nakatsuji, M. Caricato, X. Li, H. P. Hratchian, 
 A. F. Izmaylov, J. Bloino, G. Zheng, J. L. Sonnenberg, M. Hada, 
 M. Ehara, K. Toyota, R. Fukuda, J. Hasegawa, M. Ishida, T. Nakajima, 
 Y. Honda, O. Kitao, H. Nakai, T. Vreven, J. A. Montgomery, Jr., 
 J. E. Peralta, F. Ogliaro, M. Bearpark, J. J. Heyd, E. Brothers, 
 K. N. Kudin, V. N. Staroverov, T. Keith, R. Kobayashi, J. Normand, 
 K. Raghavachari, A. Rendell, J. C. Burant, S. S. Iyengar, J. Tomasi, 
 M. Cossi, N. Rega, J. M. Millam, M. Klene, J. E. Knox, J. B. Cross, 
 V. Bakken, C. Adamo, J. Jaramillo, R. Gomperts, R. E. Stratmann, 
 O. Yazyev, A. J. Austin, R. Cammi, C. Pomelli, J. W. Ochterski, 
 R. L. Martin, K. Morokuma, V. G. Zakrzewski, G. A. Voth, 
 P. Salvador, J. J. Dannenberg, S. Dapprich, A. D. Daniels, 
 O. Farkas, J. B. Foresman, J. V. Ortiz, J. Cioslowski, 
 and D. J. Fox, Gaussian, Inc., Wallingford CT, 2010.
 
 ******************************************
 Gaussian 09:  EM64L-G09RevB.01 12-Aug-2010
                25-Apr-2025 
 ******************************************
 %chk=ch4-wb97xd.chk
 %nprocshared=4
 Will use up to    4 processors via shared memory.
 %mem=30GB
 ------------------------------------------------------------
 #N Geom=AllCheck Guess=TCheck SCRF=Check HF/GFHFB2 SCF=Tight
 ------------------------------------------------------------
 1/29=7,38=1,40=1/1;
 2/12=2,40=1/2;
 3/5=37,11=9,14=-4,16=1,25=1,30=1,70=2,116=-2/1,2,3;
 4/5=101/1;
 5/5=2,32=2/2;
 6/7=2,8=2,9=2,10=2,28=1/1;
 99/5=1,9=1/99;
 ------------
 G4-B3LYP ch4
 ------------
 Redundant internal coordinates taken from checkpoint file:
 ch4-wb97xd.chk
 Charge =  0 Multiplicity = 1
 C,0,0.000034,-0.000016,-0.000341
 H,0,-0.013801,0.006884,1.091369
 H,0,-0.40193,0.943784,-0.374154
 H,0,-0.61158,-0.827351,-0.365677
 H,0,1.027106,-0.123221,-0.349489
 Recover connectivity data from disk.
                          Input orientation:                          
 ---------------------------------------------------------------------
 Center     Atomic      Atomic             Coordinates (Angstroms)
 Number     Number       Type             X           Y           Z
 ---------------------------------------------------------------------
      1          6           0        0.000034   -0.000016   -0.000341
      2          1           0       -0.013801    0.006884    1.091369
      3          1           0       -0.401930    0.943784   -0.374154
      4          1           0       -0.611580   -0.827351   -0.365677
      5          1           0        1.027106   -0.123221   -0.349489
 ---------------------------------------------------------------------
                    Distance matrix (angstroms):
                    1          2          3          4          5
     1  C    0.000000
     2  H    1.091819   0.000000
     3  H    1.091819   1.782185   0.000000
     4  H    1.091799   1.782210   1.783520   0.000000
     5  H    1.091770   1.782270   1.783606   1.783635   0.000000
 Stoichiometry    CH4
 Framework group  C1[X(CH4)]
 Deg. of freedom     9
 Full point group                 C1      NOp   1
 Largest Abelian subgroup         C1      NOp   1
 Largest concise Abelian subgroup C1      NOp   1
                         Standard orientation:                         
 ---------------------------------------------------------------------
 Center     Atomic      Atomic             Coordinates (Angstroms)
 Number     Number       Type             X           Y           Z
 ---------------------------------------------------------------------
      1          6           0        0.000034   -0.000016   -0.000341
      2          1           0       -0.013796    0.006894    1.091369
      3          1           0       -0.401226    0.944083   -0.374154
      4          1           0       -0.612197   -0.826895   -0.365677
      5          1           0        1.027014   -0.123987   -0.349489
 ---------------------------------------------------------------------
 Rotational constants (GHZ):    157.8188413    157.8066082    157.6316046
 Standard basis: GFHFB2 (5D, 7F)
 There are   191 symmetry adapted basis functions of A   symmetry.
 Integral buffers will be    131072 words long.
 Raffenetti 1 integral format.
 Two-electron integral symmetry is turned on.
   191 basis functions,   269 primitive gaussians,   234 cartesian basis functions
     5 alpha electrons        5 beta electrons
       nuclear repulsion energy        13.4132167626 Hartrees.
 NAtoms=    5 NActive=    5 NUniq=    5 SFac= 1.00D+00 NAtFMM=   50 NAOKFM=F Big=F
 One-electron integrals computed using PRISM.
 NBasis=   191 RedAO= T  NBF=   191
 NBsUse=   191 1.00D-06 NBFU=   191
 Initial guess read from the checkpoint file:  ch4-wb97xd.chk
 B after Tr=     0.000000    0.000000    0.000000
         Rot=    1.000000    0.000000    0.000000    0.000000 Ang=   0.00 deg.
 Initial guess orbital symmetries:
       Occupied  (A) (A) (A) (A) (A)
       Virtual   (A) (A) (A) (A) (A) (A) (A) (A) (A) (A) (A) (A)
                 (A) (A) (A) (A) (A) (A) (A) (A) (A) (A) (A) (A)
                 (A) (A) (A) (A) (A) (A) (A) (A) (A) (A) (A) (A)
                 (A) (A) (A) (A) (A) (A) (A) (A) (A) (A) (A) (A)
                 (A) (A) (A) (A) (A) (A) (A) (A) (A) (A) (A) (A)
                 (A) (A) (A) (A) (A) (A) (A) (A) (A) (A) (A) (A)
                 (A) (A) (A) (A) (A) (A) (A) (A) (A) (A) (A) (A)
                 (A) (A) (A) (A) (A) (A) (A) (A) (A) (A) (A) (A)
                 (A) (A) (A) (A) (A) (A) (A) (A) (A) (A) (A) (A)
                 (A) (A) (A) (A) (A) (A) (A) (A) (A) (A) (A) (A)
                 (A) (A) (A) (A) (A) (A) (A) (A) (A) (A) (A) (A)
                 (A) (A) (A) (A) (A) (A) (A) (A) (A) (A) (A) (A)
                 (A) (A) (A) (A) (A) (A) (A) (A) (A) (A) (A) (A)
                 (A) (A) (A) (A) (A) (A) (A) (A) (A) (A) (A) (A)
                 (A) (A) (A) (A) (A) (A) (A) (A) (A) (A) (A) (A)
                 (A) (A) (A) (A) (A) (A)
 Requested convergence on RMS density matrix=1.00D-08 within 128 cycles.
 Requested convergence on MAX density matrix=1.00D-06.
 Requested convergence on             energy=1.00D-06.
 No special actions if energy rises.
 Keep R1 ints in memory in canonical form, NReq=394635842.
 SCF Done:  E(RHF) =  -40.2166919959     A.U. after    7 cycles
             Convg  =    0.9980D-09             -V/T =  2.0015

 **********************************************************************

            Population analysis using the SCF density.

 **********************************************************************

 Orbital symmetries:
       Occupied  (A) (A) (A) (A) (A)
       Virtual   (A) (A) (A) (A) (A) (A) (A) (A) (A) (A) (A) (A)
                 (A) (A) (A) (A) (A) (A) (A) (A) (A) (A) (A) (A)
                 (A) (A) (A) (A) (A) (A) (A) (A) (A) (A) (A) (A)
                 (A) (A) (A) (A) (A) (A) (A) (A) (A) (A) (A) (A)
                 (A) (A) (A) (A) (A) (A) (A) (A) (A) (A) (A) (A)
                 (A) (A) (A) (A) (A) (A) (A) (A) (A) (A) (A) (A)
                 (A) (A) (A) (A) (A) (A) (A) (A) (A) (A) (A) (A)
                 (A) (A) (A) (A) (A) (A) (A) (A) (A) (A) (A) (A)
                 (A) (A) (A) (A) (A) (A) (A) (A) (A) (A) (A) (A)
                 (A) (A) (A) (A) (A) (A) (A) (A) (A) (A) (A) (A)
                 (A) (A) (A) (A) (A) (A) (A) (A) (A) (A) (A) (A)
                 (A) (A) (A) (A) (A) (A) (A) (A) (A) (A) (A) (A)
                 (A) (A) (A) (A) (A) (A) (A) (A) (A) (A) (A) (A)
                 (A) (A) (A) (A) (A) (A) (A) (A) (A) (A) (A) (A)
                 (A) (A) (A) (A) (A) (A) (A) (A) (A) (A) (A) (A)
                 (A) (A) (A) (A) (A) (A)
 The electronic state is 1-A.
 Alpha  occ. eigenvalues --  -11.20709  -0.94147  -0.54441  -0.54437  -0.54402
 Alpha virt. eigenvalues --    0.05444   0.06266   0.06266   0.06268   0.18517
 Alpha virt. eigenvalues --    0.18519   0.18520   0.22680   0.27092   0.27092
 Alpha virt. eigenvalues --    0.27096   0.44648   0.45549   0.45566   0.45569
 Alpha virt. eigenvalues --    0.48124   0.48124   0.60613   0.65036   0.65036
 Alpha virt. eigenvalues --    0.65036   0.80598   0.80651   0.80655   0.86661
 Alpha virt. eigenvalues --    0.86695   0.86697   1.02230   1.02990   1.02998
 Alpha virt. eigenvalues --    1.02999   1.15094   1.15094   1.15100   1.16934
 Alpha virt. eigenvalues --    1.16934   1.37421   1.45834   1.45868   1.45872
 Alpha virt. eigenvalues --    1.60191   1.60194   1.60231   1.60575   1.60576
 Alpha virt. eigenvalues --    1.61919   1.74554   1.74555   1.74572   2.09456
 Alpha virt. eigenvalues --    2.09461   2.09504   2.28294   2.38454   2.38535
 Alpha virt. eigenvalues --    2.38541   2.44105   2.44107   2.70276   2.70279
 Alpha virt. eigenvalues --    2.70307   2.81530   2.81532   2.81544   2.86510
 Alpha virt. eigenvalues --    2.86511   2.95458   2.95494   2.95495   3.02623
 Alpha virt. eigenvalues --    3.03400   3.03486   3.03493   3.18372   3.18474
 Alpha virt. eigenvalues --    3.18482   3.19108   3.19117   3.19209   3.45347
 Alpha virt. eigenvalues --    3.60306   3.60308   3.60382   3.72791   3.72919
 Alpha virt. eigenvalues --    3.72930   4.02338   4.13348   4.13348   4.15753
 Alpha virt. eigenvalues --    4.15760   4.15830   4.26683   4.26690   4.26709
 Alpha virt. eigenvalues --    4.51476   4.51477   4.67356   4.84218   4.84219
 Alpha virt. eigenvalues --    4.91457   4.91464   4.91509   5.40450   5.40455
 Alpha virt. eigenvalues --    5.40557   5.54854   5.54930   5.54932   5.62878
 Alpha virt. eigenvalues --    6.09765   6.09765   6.09805   7.58315   7.58329
 Alpha virt. eigenvalues --    7.58502   7.79887   7.79918   7.79919   7.86393
 Alpha virt. eigenvalues --    8.08559   8.08661   8.08675   8.14289   8.14290
 Alpha virt. eigenvalues --    8.29270   8.29276   8.29332   8.54165   8.54166
 Alpha virt. eigenvalues --    8.72397   8.72510   8.72517   8.94733   8.94735
 Alpha virt. eigenvalues --    9.02571   9.02579   9.02636   9.24410   9.24434
 Alpha virt. eigenvalues --    9.24691   9.32548   9.33173   9.33293   9.33295
 Alpha virt. eigenvalues --    9.38103   9.38107   9.38207   9.82914   9.83270
 Alpha virt. eigenvalues --    9.83294  10.32698  10.58980  10.58981  10.65073
 Alpha virt. eigenvalues --   10.65075  10.65080  10.88586  10.88666  10.88678
 Alpha virt. eigenvalues --   11.06420  11.06641  11.06653  11.13706  11.13709
 Alpha virt. eigenvalues --   11.39025  11.39305  11.39321  11.43119  11.87489
 Alpha virt. eigenvalues --   11.87571  11.87584  12.10137  12.32439  12.32450
 Alpha virt. eigenvalues --   12.32469  12.75206  12.75206  12.98584  12.98585
 Alpha virt. eigenvalues --   12.98602  15.77217  17.47158  17.47208  17.47238
 Alpha virt. eigenvalues --   40.17756
          Condensed to atoms (all electrons):
              1          2          3          4          5
     1  C    5.040460   0.409888   0.409931   0.409933   0.409937
     2  H    0.409888   0.477148  -0.018993  -0.018992  -0.018988
     3  H    0.409931  -0.018993   0.476827  -0.018917  -0.018911
     4  H    0.409933  -0.018992  -0.018917   0.476816  -0.018909
     5  H    0.409937  -0.018988  -0.018911  -0.018909   0.476793
 Mulliken atomic charges:
              1
     1  C   -0.680149
     2  H    0.169937
     3  H    0.170064
     4  H    0.170069
     5  H    0.170079
 Sum of Mulliken atomic charges =   0.00000
 Mulliken charges with hydrogens summed into heavy atoms:
              1
     1  C    0.000000
 Sum of Mulliken charges with hydrogens summed into heavy atoms =   0.00000
 Electronic spatial extent (au):  <R**2>=             35.8107
 Charge=              0.0000 electrons
 Dipole moment (field-independent basis, Debye):
    X=             -0.0001    Y=              0.0000    Z=              0.0009  Tot=              0.0009
 Quadrupole moment (field-independent basis, Debye-Ang):
   XX=             -8.4189   YY=             -8.4195   ZZ=             -8.4259
   XY=              0.0000   XZ=              0.0000   YZ=              0.0000
 Traceless Quadrupole moment (field-independent basis, Debye-Ang):
   XX=              0.0025   YY=              0.0019   ZZ=             -0.0045
   XY=              0.0000   XZ=              0.0000   YZ=              0.0000
 Octapole moment (field-independent basis, Debye-Ang**2):
  XXX=              0.5568  YYY=              0.1934  ZZZ=              0.8139  XYY=             -0.5364
  XXY=             -0.2037  XXZ=             -0.3977  XZZ=             -0.0204  YZZ=              0.0103
  YYZ=             -0.4139  XYZ=              0.0007
 Hexadecapole moment (field-independent basis, Debye-Ang**3):
 XXXX=            -15.8691 YYYY=            -15.8917 ZZZZ=            -15.6078 XXXY=             -0.0074
 XXXZ=             -0.3611 YYYX=              0.0088 YYYZ=             -0.1433 ZZZX=             -0.0146
 ZZZY=              0.0071 XXYY=             -5.3035 XXZZ=             -5.5891 YYZZ=             -5.5672
 XXYZ=              0.1364 YYXZ=              0.3754 ZZXY=             -0.0013
 N-N= 1.341321676264D+01 E-N=-1.198530485483D+02  KE= 4.015593464281D+01
 1\1\GINC-PLUTO\SP\RHF\GFHFB2\C1H4\JMSOLANO\25-Apr-2025\0\\#N Geom=AllC
 heck Guess=TCheck SCRF=Check HF/GFHFB2 SCF=Tight\\G4-B3LYP ch4\\0,1\C,
 0,0.000034,-0.000016,-0.000341\H,0,-0.013801,0.006884,1.091369\H,0,-0.
 40193,0.943784,-0.374154\H,0,-0.61158,-0.827351,-0.365677\H,0,1.027106
 ,-0.123221,-0.349489\\Version=EM64L-G09RevB.01\State=1-A\HF=-40.216692
 \RMSD=9.980e-10\Dipole=-0.0000206,0.0000078,0.0003531\Quadrupole=0.001
 8727,0.0014426,-0.0033153,0.0000096,-0.0000342,0.00002\PG=C01 [X(C1H4)
 ]\\@


 THE HURRIEDER I GO, THE BEHINDER I GET.
 Job cpu time:  0 days  0 hours  0 minutes 31.8 seconds.
 File lengths (MBytes):  RWF=     16 Int=      0 D2E=      0 Chk=      3 Scr=      1
 Normal termination of Gaussian 09 at Fri Apr 25 13:42:26 2025.
