 Entering Gaussian System, Link 0=g09
 Input=ch4-mp2.inp
 Output=ch4-mp2.log
 Initial command:
 /usr/local/g09/l1.exe /home/g09scr/Gau-11772.inp -scrdir=/home/g09scr/
 Entering Link 1 = /usr/local/g09/l1.exe PID=     11774.
  
 Copyright (c) 1988,1990,1992,1993,1995,1998,2003,2009,2010,
            Gaussian, Inc.  All Rights Reserved.
  
 This is part of the Gaussian(R) 09 program.  It is based on
 the Gaussian(R) 03 system (copyright 2003, Gaussian, Inc.),
 the Gaussian(R) 98 system (copyright 1998, Gaussian, Inc.),
 the Gaussian(R) 94 system (copyright 1995, Gaussian, Inc.),
 the Gaussian 92(TM) system (copyright 1992, Gaussian, Inc.),
 the Gaussian 90(TM) system (copyright 1990, Gaussian, Inc.),
 the Gaussian 88(TM) system (copyright 1988, Gaussian, Inc.),
 the Gaussian 86(TM) system (copyright 1986, Carnegie Mellon
 University), and the Gaussian 82(TM) system (copyright 1983,
 Carnegie Mellon University). Gaussian is a federally registered
 trademark of Gaussian, Inc.
  
 This software contains proprietary and confidential information,
 including trade secrets, belonging to Gaussian, Inc.
  
 This software is provided under written license and may be
 used, copied, transmitted, or stored only in accord with that
 written license.
  
 The following legend is applicable only to US Government
 contracts under FAR:
  
                    RESTRICTED RIGHTS LEGEND
  
 Use, reproduction and disclosure by the US Government is
 subject to restrictions as set forth in subparagraphs (a)
 and (c) of the Commercial Computer Software - Restricted
 Rights clause in FAR 52.227-19.
  
 Gaussian, Inc.
 340 Quinnipiac St., Bldg. 40, Wallingford CT 06492
  
  
 ---------------------------------------------------------------
 Warning -- This program may not be used in any manner that
 competes with the business of Gaussian, Inc. or will provide
 assistance to any competitor of Gaussian, Inc.  The licensee
 of this program is prohibited from giving any competitor of
 Gaussian, Inc. access to this program.  By using this program,
 the user acknowledges that Gaussian, Inc. is engaged in the
 business of creating and licensing software in the field of
 computational chemistry and represents and warrants to the
 licensee that it is not a competitor of Gaussian, Inc. and that
 it will not use this program in any manner prohibited above.
 ---------------------------------------------------------------
  

 Cite this work as:
 Gaussian 09, Revision B.01,
 M. J. Frisch, G. W. Trucks, H. B. Schlegel, G. E. Scuseria, 
 M. A. Robb, J. R. Cheeseman, G. Scalmani, V. Barone, B. Mennucci, 
 G. A. Petersson, H. Nakatsuji, M. Caricato, X. Li, H. P. Hratchian, 
 A. F. Izmaylov, J. Bloino, G. Zheng, J. L. Sonnenberg, M. Hada, 
 M. Ehara, K. Toyota, R. Fukuda, J. Hasegawa, M. Ishida, T. Nakajima, 
 Y. Honda, O. Kitao, H. Nakai, T. Vreven, J. A. Montgomery, Jr., 
 J. E. Peralta, F. Ogliaro, M. Bearpark, J. J. Heyd, E. Brothers, 
 K. N. Kudin, V. N. Staroverov, T. Keith, R. Kobayashi, J. Normand, 
 K. Raghavachari, A. Rendell, J. C. Burant, S. S. Iyengar, J. Tomasi, 
 M. Cossi, N. Rega, J. M. Millam, M. Klene, J. E. Knox, J. B. Cross, 
 V. Bakken, C. Adamo, J. Jaramillo, R. Gomperts, R. E. Stratmann, 
 O. Yazyev, A. J. Austin, R. Cammi, C. Pomelli, J. W. Ochterski, 
 R. L. Martin, K. Morokuma, V. G. Zakrzewski, G. A. Voth, 
 P. Salvador, J. J. Dannenberg, S. Dapprich, A. D. Daniels, 
 O. Farkas, J. B. Foresman, J. V. Ortiz, J. Cioslowski, 
 and D. J. Fox, Gaussian, Inc., Wallingford CT, 2010.
 
 ******************************************
 Gaussian 09:  EM64L-G09RevB.01 12-Aug-2010
                25-Apr-2025 
 ******************************************
 %chk=ch4-mp2.chk
 %nprocshared=4
 Will use up to    4 processors via shared memory.
 %mem=30GB
 ---------------------
 #MP2/6-31g(2df,p) Opt
 ---------------------
 1/18=20,19=15,38=1/1,3;
 2/9=110,12=2,17=6,18=5,40=1/2;
 3/5=1,6=6,7=104,11=9,16=1,25=1,30=1,71=1/1,2,3;
 4//1;
 5/5=2,38=5/2;
 8/6=4,10=2/1;
 9/15=2,16=-3/6;
 10/5=1/2;
 6/7=2,8=2,9=2,10=2/1;
 7/12=2/1,2,3,16;
 1/18=20,19=15/3(2);
 2/9=110/2;
 99//99;
 2/9=110/2;
 3/5=1,6=6,7=104,11=9,16=1,25=1,30=1,71=1/1,2,3;
 4/5=5,16=3/1;
 5/5=2,38=5/2;
 8/6=4,10=2/1;
 9/15=2,16=-3/6;
 10/5=1/2;
 7/12=2/1,2,3,16;
 1/18=20,19=15/3(-8);
 2/9=110/2;
 6/7=2,8=2,9=2,10=2/1;
 99//99;
 ------------
 G4-B3LYP ch4
 ------------
 Symbolic Z-matrix:
 Charge =  0 Multiplicity = 1
 C                     0.00003  -0.00002  -0.00034 
 H                    -0.0138    0.00688   1.09137 
 H                    -0.40193   0.94378  -0.37415 
 H                    -0.61158  -0.82735  -0.36568 
 H                     1.02711  -0.12322  -0.34949 
 

 GradGradGradGradGradGradGradGradGradGradGradGradGradGradGradGradGradGrad
 Berny optimization.
 Initialization pass.
                           ----------------------------
                           !    Initial Parameters    !
                           ! (Angstroms and Degrees)  !
 --------------------------                            --------------------------
 ! Name  Definition              Value          Derivative Info.                !
 --------------------------------------------------------------------------------
 ! R1    R(1,2)                  1.0918         estimate D2E/DX2                !
 ! R2    R(1,3)                  1.0918         estimate D2E/DX2                !
 ! R3    R(1,4)                  1.0918         estimate D2E/DX2                !
 ! R4    R(1,5)                  1.0918         estimate D2E/DX2                !
 ! A1    A(2,1,3)              109.4032         estimate D2E/DX2                !
 ! A2    A(2,1,4)              109.4069         estimate D2E/DX2                !
 ! A3    A(2,1,5)              109.4146         estimate D2E/DX2                !
 ! A4    A(3,1,4)              109.5261         estimate D2E/DX2                !
 ! A5    A(3,1,5)              109.5361         estimate D2E/DX2                !
 ! A6    A(4,1,5)              109.5402         estimate D2E/DX2                !
 ! D1    D(2,1,4,3)            119.9109         estimate D2E/DX2                !
 ! D2    D(2,1,5,3)           -119.9217         estimate D2E/DX2                !
 ! D3    D(2,1,5,4)            119.9288         estimate D2E/DX2                !
 ! D4    D(3,1,5,4)           -120.1495         estimate D2E/DX2                !
 --------------------------------------------------------------------------------
 Trust Radius=3.00D-01 FncErr=1.00D-07 GrdErr=1.00D-07
 Number of steps in this run=     24 maximum allowed number of steps=    100.
 GradGradGradGradGradGradGradGradGradGradGradGradGradGradGradGradGradGrad

                          Input orientation:                          
 ---------------------------------------------------------------------
 Center     Atomic      Atomic             Coordinates (Angstroms)
 Number     Number       Type             X           Y           Z
 ---------------------------------------------------------------------
      1          6           0        0.000034   -0.000016   -0.000341
      2          1           0       -0.013801    0.006884    1.091369
      3          1           0       -0.401930    0.943784   -0.374154
      4          1           0       -0.611580   -0.827351   -0.365677
      5          1           0        1.027106   -0.123221   -0.349489
 ---------------------------------------------------------------------
                    Distance matrix (angstroms):
                    1          2          3          4          5
     1  C    0.000000
     2  H    1.091819   0.000000
     3  H    1.091819   1.782185   0.000000
     4  H    1.091799   1.782210   1.783520   0.000000
     5  H    1.091770   1.782270   1.783606   1.783635   0.000000
 Stoichiometry    CH4
 Framework group  C1[X(CH4)]
 Deg. of freedom     9
 Full point group                 C1      NOp   1
 Largest Abelian subgroup         C1      NOp   1
 Largest concise Abelian subgroup C1      NOp   1
                         Standard orientation:                         
 ---------------------------------------------------------------------
 Center     Atomic      Atomic             Coordinates (Angstroms)
 Number     Number       Type             X           Y           Z
 ---------------------------------------------------------------------
      1          6           0        0.000034   -0.000016   -0.000341
      2          1           0       -0.013796    0.006894    1.091369
      3          1           0       -0.401226    0.944083   -0.374154
      4          1           0       -0.612197   -0.826895   -0.365677
      5          1           0        1.027014   -0.123987   -0.349489
 ---------------------------------------------------------------------
 Rotational constants (GHZ):    157.8188413    157.8066082    157.6316046
 Standard basis: 6-31G(2df,p) (6D, 7F)
 There are    48 symmetry adapted basis functions of A   symmetry.
 Integral buffers will be    131072 words long.
 Raffenetti 1 integral format.
 Two-electron integral symmetry is turned on.
    48 basis functions,    72 primitive gaussians,    51 cartesian basis functions
     5 alpha electrons        5 beta electrons
       nuclear repulsion energy        13.4132167626 Hartrees.
 NAtoms=    5 NActive=    5 NUniq=    5 SFac= 1.00D+00 NAtFMM=   50 NAOKFM=F Big=F
 One-electron integrals computed using PRISM.
 NBasis=    48 RedAO= T  NBF=    48
 NBsUse=    48 1.00D-06 NBFU=    48
 Harris functional with IExCor=  205 diagonalized for initial guess.
 ExpMin= 1.61D-01 ExpMax= 3.05D+03 ExpMxC= 4.57D+02 IAcc=1 IRadAn=         1 AccDes= 0.00D+00
 HarFok:  IExCor=  205 AccDes= 0.00D+00 IRadAn=         1 IDoV= 1
 ScaDFX=  1.000000  1.000000  1.000000  1.000000
 FoFCou: FMM=F IPFlag=           0 FMFlag=      100000 FMFlg1=           0
         NFxFlg=           0 DoJE=T BraDBF=F KetDBF=T FulRan=T
         Omega=  0.000000  0.000000  1.000000  0.000000  0.000000 ICntrl=     500 IOpCl=  0
         NMat0=    1 NMatS0=    1 NMatT0=    0 NMatD0=    1 NMtDS0=    0 NMtDT0=    0
         I1Cent=           4 NGrid=           0.
 Petite list used in FoFCou.
 Initial guess orbital symmetries:
       Occupied  (A) (A) (A) (A) (A)
       Virtual   (A) (A) (A) (A) (A) (A) (A) (A) (A) (A) (A) (A)
                 (A) (A) (A) (A) (A) (A) (A) (A) (A) (A) (A) (A)
                 (A) (A) (A) (A) (A) (A) (A) (A) (A) (A) (A) (A)
                 (A) (A) (A) (A) (A) (A) (A)
 The electronic state of the initial guess is 1-A.
 Requested convergence on RMS density matrix=1.00D-08 within 128 cycles.
 Requested convergence on MAX density matrix=1.00D-06.
 Requested convergence on             energy=1.00D-06.
 No special actions if energy rises.
 Keep R1 ints in memory in canonical form, NReq=2846452.
 SCF Done:  E(RHF) =  -40.2032952291     A.U. after    8 cycles
             Convg  =    0.9314D-09             -V/T =  2.0027
 ExpMin= 1.61D-01 ExpMax= 3.05D+03 ExpMxC= 4.57D+02 IAcc=1 IRadAn=         1 AccDes= 0.00D+00
 HarFok:  IExCor=  205 AccDes= 0.00D+00 IRadAn=         1 IDoV=-2
 ScaDFX=  1.000000  1.000000  1.000000  1.000000
 Range of M.O.s used for correlation:     2    48
 NBasis=    48 NAE=     5 NBE=     5 NFC=     1 NFV=     0
 NROrb=     47 NOA=     4 NOB=     4 NVA=    43 NVB=    43

 **** Warning!!: The largest alpha MO coefficient is  0.10410149D+02

 Fully direct method using O(ONN) memory.
 JobTyp=1 Pass  1:  I=   2 to   5 NPSUse=  4 ParTrn=T ParDer=T DoDerP=T.
 Spin components of T(2) and E(2):
     alpha-alpha T2 =       0.5633836801D-02 E2=     -0.1686976665D-01
     alpha-beta  T2 =       0.4532285448D-01 E2=     -0.1478536027D+00
     beta-beta   T2 =       0.5633836801D-02 E2=     -0.1686976665D-01
 ANorm=    0.1027905895D+01
 E2 =    -0.1815931360D+00 EUMP2 =    -0.40384888365078D+02
          IDoAtm=11111
          Differentiating once with respect to electric field.
                with respect to dipole field.
          Differentiating once with respect to nuclear coordinates.
          Keep R1 ints in memory in canonical form, NReq=2820435.
          There are     1 degrees of freedom in the 1st order CPHF.  IDoFFX=0.
 LinEq1:  Iter=  0 NonCon=     1 RMS=4.41D-03 Max=2.52D-02
 AX will form     1 AO Fock derivatives at one time.
 LinEq1:  Iter=  1 NonCon=     1 RMS=1.45D-03 Max=1.01D-02
 LinEq1:  Iter=  2 NonCon=     1 RMS=1.84D-04 Max=1.05D-03
 LinEq1:  Iter=  3 NonCon=     1 RMS=1.08D-05 Max=5.86D-05
 LinEq1:  Iter=  4 NonCon=     1 RMS=5.97D-07 Max=4.71D-06
 LinEq1:  Iter=  5 NonCon=     1 RMS=3.50D-08 Max=2.81D-07
 LinEq1:  Iter=  6 NonCon=     1 RMS=2.12D-09 Max=1.77D-08
 LinEq1:  Iter=  7 NonCon=     1 RMS=1.15D-10 Max=7.91D-10
 LinEq1:  Iter=  8 NonCon=     0 RMS=1.86D-11 Max=1.44D-10
 Linear equations converged to 1.000D-10 1.000D-09 after     8 iterations.
 End of Minotr Frequency-dependent properties file   721 does not exist.
 End of Minotr Frequency-dependent properties file   722 does not exist.

 **********************************************************************

            Population analysis using the SCF density.

 **********************************************************************

 Orbital symmetries:
       Occupied  (A) (A) (A) (A) (A)
       Virtual   (A) (A) (A) (A) (A) (A) (A) (A) (A) (A) (A) (A)
                 (A) (A) (A) (A) (A) (A) (A) (A) (A) (A) (A) (A)
                 (A) (A) (A) (A) (A) (A) (A) (A) (A) (A) (A) (A)
                 (A) (A) (A) (A) (A) (A) (A)
 The electronic state is 1-A.
 Alpha  occ. eigenvalues --  -11.21286  -0.94031  -0.54221  -0.54216  -0.54181
 Alpha virt. eigenvalues --    0.25363   0.32415   0.32422   0.32424   0.70028
 Alpha virt. eigenvalues --    0.70037   0.70037   0.97407   0.97407   0.99390
 Alpha virt. eigenvalues --    0.99415   0.99419   1.15270   1.23723   1.98218
 Alpha virt. eigenvalues --    1.98218   1.98256   2.25927   2.25973   2.25976
 Alpha virt. eigenvalues --    2.72640   2.72793   2.72804   2.96596   3.20849
 Alpha virt. eigenvalues --    3.20893   3.20901   3.34437   3.34440   3.47767
 Alpha virt. eigenvalues --    4.05380   4.05402   4.05648   4.30193   4.30213
 Alpha virt. eigenvalues --    4.30419   4.64088   4.64088   5.15162   5.15163
 Alpha virt. eigenvalues --    5.15245   5.70284  11.68219
          Condensed to atoms (all electrons):
              1          2          3          4          5
     1  C    4.970259   0.402504   0.402530   0.402533   0.402540
     2  H    0.402504   0.522719  -0.023415  -0.023412  -0.023408
     3  H    0.402530  -0.023415   0.522399  -0.023316  -0.023308
     4  H    0.402533  -0.023412  -0.023316   0.522384  -0.023305
     5  H    0.402540  -0.023408  -0.023308  -0.023305   0.522354
 Mulliken atomic charges:
              1
     1  C   -0.580366
     2  H    0.145012
     3  H    0.145110
     4  H    0.145116
     5  H    0.145128
 Sum of Mulliken atomic charges =   0.00000
 Mulliken charges with hydrogens summed into heavy atoms:
              1
     1  C    0.000000
 Sum of Mulliken charges with hydrogens summed into heavy atoms =   0.00000
 Electronic spatial extent (au):  <R**2>=             35.5886
 Charge=              0.0000 electrons
 Dipole moment (field-independent basis, Debye):
    X=             -0.0001    Y=              0.0000    Z=              0.0009  Tot=              0.0009
 Quadrupole moment (field-independent basis, Debye-Ang):
   XX=             -8.3195   YY=             -8.3200   ZZ=             -8.3262
   XY=              0.0000   XZ=              0.0000   YZ=              0.0000
 Traceless Quadrupole moment (field-independent basis, Debye-Ang):
   XX=              0.0024   YY=              0.0019   ZZ=             -0.0043
   XY=              0.0000   XZ=              0.0000   YZ=              0.0000
 Octapole moment (field-independent basis, Debye-Ang**2):
  XXX=              0.5750  YYY=              0.1997  ZZZ=              0.8406  XYY=             -0.5539
  XXY=             -0.2103  XXZ=             -0.4108  XZZ=             -0.0211  YZZ=              0.0107
  YYZ=             -0.4275  XYZ=              0.0007
 Hexadecapole moment (field-independent basis, Debye-Ang**3):
 XXXX=            -15.1157 YYYY=            -15.1370 ZZZZ=            -14.8656 XXXY=             -0.0070
 XXXZ=             -0.3428 YYYX=              0.0083 YYYZ=             -0.1361 ZZZX=             -0.0138
 ZZZY=              0.0067 XXYY=             -5.0517 XXZZ=             -5.3224 YYZZ=             -5.3016
 XXYZ=              0.1295 YYXZ=              0.3564 ZZXY=             -0.0013
 N-N= 1.341321676264D+01 E-N=-1.197674314541D+02  KE= 4.009311317983D+01
 Calling FoFJK, ICntrl=      2127 FMM=F ISym2X=0 I1Cent= 0 IOpClX= 0 NMat=1 NMatS=1 NMatT=0.
 ***** Axes restored to original set *****
 -------------------------------------------------------------------
 Center     Atomic                   Forces (Hartrees/Bohr)
 Number     Number              X              Y              Z
 -------------------------------------------------------------------
      1        6          -0.000050440    0.000026004    0.000325251
      2        1           0.000045075   -0.000022231   -0.002845712
      3        1           0.001102833   -0.002563227    0.000872382
      4        1           0.001667895    0.002231918    0.000847183
      5        1          -0.002765363    0.000327536    0.000800896
 -------------------------------------------------------------------
 Cartesian Forces:  Max     0.002845712 RMS     0.001497421

 GradGradGradGradGradGradGradGradGradGradGradGradGradGradGradGradGradGrad
 Berny optimization.
 Internal  Forces:  Max     0.002920428 RMS     0.001547334
 Search for a local minimum.
 Step number   1 out of a maximum of   24
 All quantities printed in internal units (Hartrees-Bohrs-Radians)
 Mixed Optimization -- RFO/linear search
 Second derivative matrix not updated -- first step.
 The second derivative matrix:
                          R1        R2        R3        R4        A1
           R1           0.34603
           R2           0.00000   0.34603
           R3           0.00000   0.00000   0.34606
           R4           0.00000   0.00000   0.00000   0.34609
           A1           0.00000   0.00000   0.00000   0.00000   0.16000
           A2           0.00000   0.00000   0.00000   0.00000   0.00000
           A3           0.00000   0.00000   0.00000   0.00000   0.00000
           A4           0.00000   0.00000   0.00000   0.00000   0.00000
           A5           0.00000   0.00000   0.00000   0.00000   0.00000
           A6           0.00000   0.00000   0.00000   0.00000   0.00000
           D1           0.00000   0.00000   0.00000   0.00000   0.00000
           D2           0.00000   0.00000   0.00000   0.00000   0.00000
           D3           0.00000   0.00000   0.00000   0.00000   0.00000
           D4           0.00000   0.00000   0.00000   0.00000   0.00000
                          A2        A3        A4        A5        A6
           A2           0.16000
           A3           0.00000   0.16000
           A4           0.00000   0.00000   0.16000
           A5           0.00000   0.00000   0.00000   0.16000
           A6           0.00000   0.00000   0.00000   0.00000   0.16000
           D1           0.00000   0.00000   0.00000   0.00000   0.00000
           D2           0.00000   0.00000   0.00000   0.00000   0.00000
           D3           0.00000   0.00000   0.00000   0.00000   0.00000
           D4           0.00000   0.00000   0.00000   0.00000   0.00000
                          D1        D2        D3        D4
           D1           0.00230
           D2           0.00000   0.00230
           D3           0.00000   0.00000   0.00230
           D4           0.00000   0.00000   0.00000   0.00230
 ITU=  0
     Eigenvalues ---    0.05079   0.05705   0.08654   0.16000   0.16000
     Eigenvalues ---    0.34603   0.34603   0.34606   0.34609
 RFO step:  Lambda=-9.73979380D-05 EMin= 5.07918028D-02
 Linear search not attempted -- first point.
 Iteration  1 RMS(Cart)=  0.00450268 RMS(Int)=  0.00000348
 Iteration  2 RMS(Cart)=  0.00000208 RMS(Int)=  0.00000058
 Iteration  3 RMS(Cart)=  0.00000000 RMS(Int)=  0.00000058
 Variable       Old X    -DE/DX   Delta X   Delta X   Delta X     New X
                                 (Linear)    (Quad)   (Total)
    R1        2.06324  -0.00285   0.00000  -0.00822  -0.00822   2.05502
    R2        2.06324  -0.00292   0.00000  -0.00844  -0.00844   2.05480
    R3        2.06320  -0.00291   0.00000  -0.00840  -0.00840   2.05480
    R4        2.06315  -0.00289   0.00000  -0.00836  -0.00836   2.05478
    A1        1.90945   0.00003   0.00000   0.00090   0.00090   1.91034
    A2        1.90951   0.00005   0.00000   0.00086   0.00086   1.91037
    A3        1.90965   0.00009   0.00000   0.00077   0.00077   1.91042
    A4        1.91159   0.00000   0.00000  -0.00072  -0.00073   1.91087
    A5        1.91177  -0.00008   0.00000  -0.00087  -0.00087   1.91089
    A6        1.91184  -0.00009   0.00000  -0.00093  -0.00093   1.91091
    D1        2.09284   0.00007   0.00000   0.00118   0.00118   2.09402
    D2       -2.09303  -0.00005   0.00000  -0.00104  -0.00104  -2.09406
    D3        2.09315   0.00006   0.00000   0.00096   0.00096   2.09411
    D4       -2.09700   0.00011   0.00000   0.00200   0.00200  -2.09501
         Item               Value     Threshold  Converged?
 Maximum Force            0.002920     0.000450     NO 
 RMS     Force            0.001547     0.000300     NO 
 Maximum Displacement     0.008512     0.001800     NO 
 RMS     Displacement     0.004503     0.001200     NO 
 Predicted change in Energy=-4.871267D-05
 GradGradGradGradGradGradGradGradGradGradGradGradGradGradGradGradGradGrad

                          Input orientation:                          
 ---------------------------------------------------------------------
 Center     Atomic      Atomic             Coordinates (Angstroms)
 Number     Number       Type             X           Y           Z
 ---------------------------------------------------------------------
      1          6           0       -0.000017    0.000006    0.000161
      2          1           0       -0.013736    0.006854    1.087521
      3          1           0       -0.400145    0.939684   -0.372993
      4          1           0       -0.608875   -0.823772   -0.364552
      5          1           0        1.022602   -0.122692   -0.348428
 ---------------------------------------------------------------------
                    Distance matrix (angstroms):
                    1          2          3          4          5
     1  C    0.000000
     2  H    1.087468   0.000000
     3  H    1.087355   1.775552   0.000000
     4  H    1.087352   1.775569   1.775786   0.000000
     5  H    1.087345   1.775592   1.775797   1.775807   0.000000
 Stoichiometry    CH4
 Framework group  C1[X(CH4)]
 Deg. of freedom     9
 Full point group                 C1      NOp   1
 Largest Abelian subgroup         C1      NOp   1
 Largest concise Abelian subgroup C1      NOp   1
                         Standard orientation:                         
 ---------------------------------------------------------------------
 Center     Atomic      Atomic             Coordinates (Angstroms)
 Number     Number       Type             X           Y           Z
 ---------------------------------------------------------------------
      1          6           0        0.000011   -0.000009   -0.000090
      2          1           0       -0.050258    0.040988    1.085442
      3          1           0       -0.274595    0.968044   -0.412165
      4          1           0       -0.687923   -0.758356   -0.366136
      5          1           0        1.012711   -0.250625   -0.306602
 ---------------------------------------------------------------------
 Rotational constants (GHZ):    159.0491760    159.0469893    159.0176657
 Standard basis: 6-31G(2df,p) (6D, 7F)
 There are    48 symmetry adapted basis functions of A   symmetry.
 Integral buffers will be    131072 words long.
 Raffenetti 1 integral format.
 Two-electron integral symmetry is turned on.
    48 basis functions,    72 primitive gaussians,    51 cartesian basis functions
     5 alpha electrons        5 beta electrons
       nuclear repulsion energy        13.4677629549 Hartrees.
 NAtoms=    5 NActive=    5 NUniq=    5 SFac= 1.00D+00 NAtFMM=   50 NAOKFM=F Big=F
 One-electron integrals computed using PRISM.
 NBasis=    48 RedAO= T  NBF=    48
 NBsUse=    48 1.00D-06 NBFU=    48
 Initial guess read from the read-write file.
 B after Tr=     0.000000    0.000000    0.000000
         Rot=    1.000000    0.000000    0.000000    0.000000 Ang=   0.00 deg.
 Initial guess orbital symmetries:
       Occupied  (A) (A) (A) (A) (A)
       Virtual   (A) (A) (A) (A) (A) (A) (A) (A) (A) (A) (A) (A)
                 (A) (A) (A) (A) (A) (A) (A) (A) (A) (A) (A) (A)
                 (A) (A) (A) (A) (A) (A) (A) (A) (A) (A) (A) (A)
                 (A) (A) (A) (A) (A) (A) (A)
 Requested convergence on RMS density matrix=1.00D-08 within 128 cycles.
 Requested convergence on MAX density matrix=1.00D-06.
 Requested convergence on             energy=1.00D-06.
 No special actions if energy rises.
 Keep R1 ints in memory in canonical form, NReq=2846452.
 SCF Done:  E(RHF) =  -40.2034279827     A.U. after    8 cycles
             Convg  =    0.4359D-08             -V/T =  2.0021
 ExpMin= 1.61D-01 ExpMax= 3.05D+03 ExpMxC= 4.57D+02 IAcc=1 IRadAn=         1 AccDes= 0.00D+00
 HarFok:  IExCor=  205 AccDes= 0.00D+00 IRadAn=         1 IDoV=-2
 ScaDFX=  1.000000  1.000000  1.000000  1.000000
 Range of M.O.s used for correlation:     2    48
 NBasis=    48 NAE=     5 NBE=     5 NFC=     1 NFV=     0
 NROrb=     47 NOA=     4 NOB=     4 NVA=    43 NVB=    43

 **** Warning!!: The largest alpha MO coefficient is  0.10469066D+02

 Fully direct method using O(ONN) memory.
 JobTyp=1 Pass  1:  I=   2 to   5 NPSUse=  4 ParTrn=T ParDer=T DoDerP=T.
 Spin components of T(2) and E(2):
     alpha-alpha T2 =       0.5621776868D-02 E2=     -0.1688163518D-01
     alpha-beta  T2 =       0.4511867402D-01 E2=     -0.1477434977D+00
     beta-beta   T2 =       0.5621776868D-02 E2=     -0.1688163518D-01
 ANorm=    0.1027794837D+01
 E2 =    -0.1815067681D+00 EUMP2 =    -0.40384934750811D+02
          IDoAtm=11111
          Differentiating once with respect to electric field.
                with respect to dipole field.
          Differentiating once with respect to nuclear coordinates.
          Keep R1 ints in memory in canonical form, NReq=2820435.
          There are     1 degrees of freedom in the 1st order CPHF.  IDoFFX=0.
 LinEq1:  Iter=  0 NonCon=     1 RMS=4.38D-03 Max=2.51D-02
 AX will form     1 AO Fock derivatives at one time.
 LinEq1:  Iter=  1 NonCon=     1 RMS=1.44D-03 Max=1.01D-02
 LinEq1:  Iter=  2 NonCon=     1 RMS=1.82D-04 Max=1.05D-03
 LinEq1:  Iter=  3 NonCon=     1 RMS=1.08D-05 Max=5.81D-05
 LinEq1:  Iter=  4 NonCon=     1 RMS=5.90D-07 Max=4.67D-06
 LinEq1:  Iter=  5 NonCon=     1 RMS=3.44D-08 Max=2.77D-07
 LinEq1:  Iter=  6 NonCon=     1 RMS=2.06D-09 Max=1.75D-08
 LinEq1:  Iter=  7 NonCon=     0 RMS=7.32D-11 Max=3.98D-10
 Linear equations converged to 1.000D-10 1.000D-09 after     7 iterations.
 End of Minotr Frequency-dependent properties file   721 does not exist.
 End of Minotr Frequency-dependent properties file   722 does not exist.
 Calling FoFJK, ICntrl=      2127 FMM=F ISym2X=0 I1Cent= 0 IOpClX= 0 NMat=1 NMatS=1 NMatT=0.
 ***** Axes restored to original set *****
 -------------------------------------------------------------------
 Center     Atomic                   Forces (Hartrees/Bohr)
 Number     Number              X              Y              Z
 -------------------------------------------------------------------
      1        6          -0.000012656    0.000006511    0.000146817
      2        1           0.000002126   -0.000001351    0.000107586
      3        1          -0.000056634    0.000136918   -0.000087264
      4        1          -0.000087146   -0.000122410   -0.000085147
      5        1           0.000154311   -0.000019667   -0.000081992
 -------------------------------------------------------------------
 Cartesian Forces:  Max     0.000154311 RMS     0.000090796

 GradGradGradGradGradGradGradGradGradGradGradGradGradGradGradGradGradGrad
 Berny optimization.
 Using GEDIIS/GDIIS optimizer.
 Internal  Forces:  Max     0.000173630 RMS     0.000085154
 Search for a local minimum.
 Step number   2 out of a maximum of   24
 All quantities printed in internal units (Hartrees-Bohrs-Radians)
 Mixed Optimization -- En-DIIS/RFO-DIIS
 Update second derivatives using D2CorX and points    1    2
 DE= -4.64D-05 DEPred=-4.87D-05 R= 9.52D-01
 SS=  1.41D+00  RLast= 1.71D-02 DXNew= 5.0454D-01 5.1177D-02
 Trust test= 9.52D-01 RLast= 1.71D-02 DXMaxT set to 3.00D-01
 The second derivative matrix:
                          R1        R2        R3        R4        A1
           R1           0.34805
           R2           0.00377   0.35167
           R3           0.00380   0.00567   0.35175
           R4           0.00391   0.00577   0.00580   0.35199
           A1           0.00347   0.00355   0.00354   0.00352   0.15980
           A2           0.00286   0.00291   0.00290   0.00289  -0.00019
           A3           0.00159   0.00159   0.00158   0.00157  -0.00016
           A4          -0.00335  -0.00344  -0.00342  -0.00341   0.00017
           A5          -0.00235  -0.00237  -0.00236  -0.00235   0.00019
           A6          -0.00222  -0.00223  -0.00222  -0.00221   0.00020
           D1          -0.00148  -0.00155  -0.00154  -0.00154   0.00001
           D2           0.00098   0.00103   0.00102   0.00102  -0.00001
           D3          -0.00131  -0.00137  -0.00137  -0.00136   0.00001
           D4          -0.00229  -0.00240  -0.00239  -0.00238   0.00001
                          A2        A3        A4        A5        A6
           A2           0.15982
           A3          -0.00015   0.15989
           A4           0.00016   0.00015   0.15986
           A5           0.00017   0.00014  -0.00017   0.15983
           A6           0.00018   0.00014  -0.00018  -0.00017   0.15983
           D1           0.00002   0.00003   0.00000  -0.00003  -0.00003
           D2          -0.00001  -0.00002   0.00000   0.00002   0.00002
           D3           0.00002   0.00003   0.00000  -0.00002  -0.00003
           D4           0.00003   0.00005   0.00000  -0.00004  -0.00005
                          D1        D2        D3        D4
           D1           0.00233
           D2          -0.00002   0.00231
           D3           0.00003  -0.00002   0.00232
           D4           0.00004  -0.00003   0.00004   0.00237
 ITU=  1  0
 Use linear search instead of GDIIS.
     Eigenvalues ---    0.05076   0.05702   0.08643   0.15993   0.16000
     Eigenvalues ---    0.34557   0.34604   0.34607   0.36581
 RFO step:  Lambda=-5.56133158D-08 EMin= 5.07598403D-02
 Quartic linear search produced a step of -0.04862.
 Iteration  1 RMS(Cart)=  0.00024369 RMS(Int)=  0.00000006
 Iteration  2 RMS(Cart)=  0.00000004 RMS(Int)=  0.00000000
 Variable       Old X    -DE/DX   Delta X   Delta X   Delta X     New X
                                 (Linear)    (Quad)   (Total)
    R1        2.05502   0.00011   0.00040  -0.00011   0.00029   2.05530
    R2        2.05480   0.00017   0.00041   0.00005   0.00046   2.05526
    R3        2.05480   0.00017   0.00041   0.00005   0.00046   2.05526
    R4        2.05478   0.00017   0.00041   0.00006   0.00047   2.05525
    A1        1.91034   0.00001  -0.00004   0.00025   0.00020   1.91055
    A2        1.91037   0.00001  -0.00004   0.00023   0.00018   1.91056
    A3        1.91042   0.00002  -0.00004   0.00019   0.00015   1.91057
    A4        1.91087   0.00000   0.00004  -0.00020  -0.00016   1.91070
    A5        1.91089  -0.00002   0.00004  -0.00022  -0.00018   1.91071
    A6        1.91091  -0.00002   0.00005  -0.00024  -0.00020   1.91072
    D1        2.09402   0.00002  -0.00006   0.00032   0.00026   2.09428
    D2       -2.09406  -0.00001   0.00005  -0.00028  -0.00023  -2.09430
    D3        2.09411   0.00001  -0.00005   0.00024   0.00020   2.09431
    D4       -2.09501   0.00002  -0.00010   0.00053   0.00043  -2.09458
         Item               Value     Threshold  Converged?
 Maximum Force            0.000174     0.000450     YES
 RMS     Force            0.000085     0.000300     YES
 Maximum Displacement     0.000530     0.001800     YES
 RMS     Displacement     0.000244     0.001200     YES
 Predicted change in Energy=-1.511203D-07
 Optimization completed.
    -- Stationary point found.
                           ----------------------------
                           !   Optimized Parameters   !
                           ! (Angstroms and Degrees)  !
 --------------------------                            --------------------------
 ! Name  Definition              Value          Derivative Info.                !
 --------------------------------------------------------------------------------
 ! R1    R(1,2)                  1.0875         -DE/DX =    0.0001              !
 ! R2    R(1,3)                  1.0874         -DE/DX =    0.0002              !
 ! R3    R(1,4)                  1.0874         -DE/DX =    0.0002              !
 ! R4    R(1,5)                  1.0873         -DE/DX =    0.0002              !
 ! A1    A(2,1,3)              109.4545         -DE/DX =    0.0                 !
 ! A2    A(2,1,4)              109.4563         -DE/DX =    0.0                 !
 ! A3    A(2,1,5)              109.4589         -DE/DX =    0.0                 !
 ! A4    A(3,1,4)              109.4845         -DE/DX =    0.0                 !
 ! A5    A(3,1,5)              109.486          -DE/DX =    0.0                 !
 ! A6    A(4,1,5)              109.4871         -DE/DX =    0.0                 !
 ! D1    D(2,1,4,3)            119.9785         -DE/DX =    0.0                 !
 ! D2    D(2,1,5,3)           -119.981          -DE/DX =    0.0                 !
 ! D3    D(2,1,5,4)            119.9839         -DE/DX =    0.0                 !
 ! D4    D(3,1,5,4)           -120.0351         -DE/DX =    0.0                 !
 --------------------------------------------------------------------------------
 GradGradGradGradGradGradGradGradGradGradGradGradGradGradGradGradGradGrad

                          Input orientation:                          
 ---------------------------------------------------------------------
 Center     Atomic      Atomic             Coordinates (Angstroms)
 Number     Number       Type             X           Y           Z
 ---------------------------------------------------------------------
      1          6           0       -0.000017    0.000006    0.000161
      2          1           0       -0.013736    0.006854    1.087521
      3          1           0       -0.400145    0.939684   -0.372993
      4          1           0       -0.608875   -0.823772   -0.364552
      5          1           0        1.022602   -0.122692   -0.348428
 ---------------------------------------------------------------------
                    Distance matrix (angstroms):
                    1          2          3          4          5
     1  C    0.000000
     2  H    1.087468   0.000000
     3  H    1.087355   1.775552   0.000000
     4  H    1.087352   1.775569   1.775786   0.000000
     5  H    1.087345   1.775592   1.775797   1.775807   0.000000
 Stoichiometry    CH4
 Framework group  C1[X(CH4)]
 Deg. of freedom     9
 Full point group                 C1      NOp   1
 Largest Abelian subgroup         C1      NOp   1
 Largest concise Abelian subgroup C1      NOp   1
                         Standard orientation:                         
 ---------------------------------------------------------------------
 Center     Atomic      Atomic             Coordinates (Angstroms)
 Number     Number       Type             X           Y           Z
 ---------------------------------------------------------------------
      1          6           0        0.000011   -0.000009   -0.000090
      2          1           0       -0.050258    0.040988    1.085442
      3          1           0       -0.274595    0.968044   -0.412165
      4          1           0       -0.687923   -0.758356   -0.366136
      5          1           0        1.012711   -0.250625   -0.306602
 ---------------------------------------------------------------------
 Rotational constants (GHZ):    159.0491760    159.0469893    159.0176657

 **********************************************************************

            Population analysis using the SCF density.

 **********************************************************************

 Orbital symmetries:
       Occupied  (A) (A) (A) (A) (A)
       Virtual   (A) (A) (A) (A) (A) (A) (A) (A) (A) (A) (A) (A)
                 (A) (A) (A) (A) (A) (A) (A) (A) (A) (A) (A) (A)
                 (A) (A) (A) (A) (A) (A) (A) (A) (A) (A) (A) (A)
                 (A) (A) (A) (A) (A) (A) (A)
 The electronic state is 1-A.
 Alpha  occ. eigenvalues --  -11.21077  -0.94216  -0.54325  -0.54324  -0.54313
 Alpha virt. eigenvalues --    0.25446   0.32533   0.32536   0.32537   0.69927
 Alpha virt. eigenvalues --    0.69927   0.69928   0.97394   0.97394   0.99586
 Alpha virt. eigenvalues --    0.99595   0.99596   1.15841   1.23916   1.98782
 Alpha virt. eigenvalues --    1.98784   1.98784   2.26324   2.26332   2.26333
 Alpha virt. eigenvalues --    2.73096   2.73130   2.73134   2.97155   3.21568
 Alpha virt. eigenvalues --    3.21587   3.21588   3.35481   3.35483   3.49180
 Alpha virt. eigenvalues --    4.06150   4.06157   4.06220   4.30911   4.30916
 Alpha virt. eigenvalues --    4.30972   4.63877   4.63877   5.16259   5.16259
 Alpha virt. eigenvalues --    5.16260   5.72875  11.69590
          Condensed to atoms (all electrons):
              1          2          3          4          5
     1  C    4.966821   0.403201   0.403223   0.403224   0.403225
     2  H    0.403201   0.522444  -0.023514  -0.023513  -0.023511
     3  H    0.403223  -0.023514   0.522346  -0.023494  -0.023493
     4  H    0.403224  -0.023513  -0.023494   0.522342  -0.023492
     5  H    0.403225  -0.023511  -0.023493  -0.023492   0.522335
 Mulliken atomic charges:
              1
     1  C   -0.579693
     2  H    0.144893
     3  H    0.144931
     4  H    0.144933
     5  H    0.144936
 Sum of Mulliken atomic charges =   0.00000
 Mulliken charges with hydrogens summed into heavy atoms:
              1
     1  C    0.000000
 Sum of Mulliken charges with hydrogens summed into heavy atoms =   0.00000
 Electronic spatial extent (au):  <R**2>=             35.4222
 Charge=              0.0000 electrons
 Dipole moment (field-independent basis, Debye):
    X=              0.0000    Y=              0.0000    Z=              0.0001  Tot=              0.0001
 Quadrupole moment (field-independent basis, Debye-Ang):
   XX=             -8.3084   YY=             -8.3085   ZZ=             -8.3099
   XY=              0.0000   XZ=              0.0000   YZ=              0.0000
 Traceless Quadrupole moment (field-independent basis, Debye-Ang):
   XX=              0.0005   YY=              0.0004   ZZ=             -0.0010
   XY=              0.0000   XZ=              0.0000   YZ=              0.0000
 Octapole moment (field-independent basis, Debye-Ang**2):
  XXX=              0.5007  YYY=              0.3294  ZZZ=              0.8172  XYY=             -0.4263
  XXY=             -0.3926  XXZ=             -0.3731  XZZ=             -0.0744  YZZ=              0.0633
  YYZ=             -0.4441  XYZ=             -0.0042
 Hexadecapole moment (field-independent basis, Debye-Ang**3):
 XXXX=            -14.9901 YYYY=            -15.0769 ZZZZ=            -14.7853 XXXY=             -0.0423
 XXXZ=             -0.2414 YYYX=              0.0442 YYYZ=             -0.2648 ZZZX=             -0.0512
 ZZZY=              0.0368 XXYY=             -5.0219 XXZZ=             -5.3151 YYZZ=             -5.2284
 XXYZ=              0.2280 YYXZ=              0.2926 ZZXY=             -0.0019
 N-N= 1.346776295488D+01 E-N=-1.198952272388D+02  KE= 4.011792329635D+01
 1\1\GINC-PLUTO\FOpt\RMP2-FC\6-31G(2df,p)\C1H4\JMSOLANO\25-Apr-2025\0\\
 #MP2/6-31g(2df,p) Opt\\G4-B3LYP ch4\\0,1\C,-0.0000172033,0.0000063068,
 0.000160835\H,-0.0137358654,0.006853762,1.0875209097\H,-0.4001445586,0
 .9396838719,-0.3729934219\H,-0.6088752029,-0.8237718622,-0.3645520582\
 H,1.0226018302,-0.1226920784,-0.3484282646\\Version=EM64L-G09RevB.01\S
 tate=1-A\HF=-40.203428\MP2=-40.3849348\RMSD=4.359e-09\RMSF=9.080e-05\D
 ipole=-0.0000079,0.0000049,0.0000771\PG=C01 [X(C1H4)]\\@


 KINETICS       FACT
 ---------  =  -------
 MECHANISM     FICTION
 Job cpu time:  0 days  0 hours  0 minutes  9.1 seconds.
 File lengths (MBytes):  RWF=      5 Int=      0 D2E=      0 Chk=      1 Scr=      1
 Normal termination of Gaussian 09 at Fri Apr 25 13:41:38 2025.
 Initial command:
 /usr/local/g09/l1.exe /home/g09scr/Gau-11772.inp -scrdir=/home/g09scr/
 Entering Link 1 = /usr/local/g09/l1.exe PID=     11881.
  
 Copyright (c) 1988,1990,1992,1993,1995,1998,2003,2009,2010,
            Gaussian, Inc.  All Rights Reserved.
  
 This is part of the Gaussian(R) 09 program.  It is based on
 the Gaussian(R) 03 system (copyright 2003, Gaussian, Inc.),
 the Gaussian(R) 98 system (copyright 1998, Gaussian, Inc.),
 the Gaussian(R) 94 system (copyright 1995, Gaussian, Inc.),
 the Gaussian 92(TM) system (copyright 1992, Gaussian, Inc.),
 the Gaussian 90(TM) system (copyright 1990, Gaussian, Inc.),
 the Gaussian 88(TM) system (copyright 1988, Gaussian, Inc.),
 the Gaussian 86(TM) system (copyright 1986, Carnegie Mellon
 University), and the Gaussian 82(TM) system (copyright 1983,
 Carnegie Mellon University). Gaussian is a federally registered
 trademark of Gaussian, Inc.
  
 This software contains proprietary and confidential information,
 including trade secrets, belonging to Gaussian, Inc.
  
 This software is provided under written license and may be
 used, copied, transmitted, or stored only in accord with that
 written license.
  
 The following legend is applicable only to US Government
 contracts under FAR:
  
                    RESTRICTED RIGHTS LEGEND
  
 Use, reproduction and disclosure by the US Government is
 subject to restrictions as set forth in subparagraphs (a)
 and (c) of the Commercial Computer Software - Restricted
 Rights clause in FAR 52.227-19.
  
 Gaussian, Inc.
 340 Quinnipiac St., Bldg. 40, Wallingford CT 06492
  
  
 ---------------------------------------------------------------
 Warning -- This program may not be used in any manner that
 competes with the business of Gaussian, Inc. or will provide
 assistance to any competitor of Gaussian, Inc.  The licensee
 of this program is prohibited from giving any competitor of
 Gaussian, Inc. access to this program.  By using this program,
 the user acknowledges that Gaussian, Inc. is engaged in the
 business of creating and licensing software in the field of
 computational chemistry and represents and warrants to the
 licensee that it is not a competitor of Gaussian, Inc. and that
 it will not use this program in any manner prohibited above.
 ---------------------------------------------------------------
  

 Cite this work as:
 Gaussian 09, Revision B.01,
 M. J. Frisch, G. W. Trucks, H. B. Schlegel, G. E. Scuseria, 
 M. A. Robb, J. R. Cheeseman, G. Scalmani, V. Barone, B. Mennucci, 
 G. A. Petersson, H. Nakatsuji, M. Caricato, X. Li, H. P. Hratchian, 
 A. F. Izmaylov, J. Bloino, G. Zheng, J. L. Sonnenberg, M. Hada, 
 M. Ehara, K. Toyota, R. Fukuda, J. Hasegawa, M. Ishida, T. Nakajima, 
 Y. Honda, O. Kitao, H. Nakai, T. Vreven, J. A. Montgomery, Jr., 
 J. E. Peralta, F. Ogliaro, M. Bearpark, J. J. Heyd, E. Brothers, 
 K. N. Kudin, V. N. Staroverov, T. Keith, R. Kobayashi, J. Normand, 
 K. Raghavachari, A. Rendell, J. C. Burant, S. S. Iyengar, J. Tomasi, 
 M. Cossi, N. Rega, J. M. Millam, M. Klene, J. E. Knox, J. B. Cross, 
 V. Bakken, C. Adamo, J. Jaramillo, R. Gomperts, R. E. Stratmann, 
 O. Yazyev, A. J. Austin, R. Cammi, C. Pomelli, J. W. Ochterski, 
 R. L. Martin, K. Morokuma, V. G. Zakrzewski, G. A. Voth, 
 P. Salvador, J. J. Dannenberg, S. Dapprich, A. D. Daniels, 
 O. Farkas, J. B. Foresman, J. V. Ortiz, J. Cioslowski, 
 and D. J. Fox, Gaussian, Inc., Wallingford CT, 2010.
 
 ******************************************
 Gaussian 09:  EM64L-G09RevB.01 12-Aug-2010
                25-Apr-2025 
 ******************************************
 %chk=ch4-mp2.chk
 %nprocshared=4
 Will use up to    4 processors via shared memory.
 %mem=30GB
 --------------------------------------------------------------
 #N Geom=AllCheck Guess=TCheck SCRF=Check MP2/6-31g(2df,p) Freq
 --------------------------------------------------------------
 1/10=4,29=7,30=1,38=1,40=1/1,3;
 2/12=2,40=1/2;
 3/5=1,6=6,7=104,11=9,14=-4,16=1,25=1,30=1,70=2,71=2,116=-2/1,2,3;
 4/5=101/1;
 5/5=2,98=1/2;
 8/6=3,8=1,10=2,19=11,30=-1/1;
 9/15=3,16=-3/6;
 11/6=1,8=1,15=11,17=12,24=-1,27=1,28=-2,29=300,32=6,42=3/1,2,10;
 10/6=2,21=1/2;
 8/6=4,8=1,10=2,19=11,30=-1/11,4;
 10/5=1,20=4/2;
 11/12=2,14=11,16=1,17=2,28=-2,42=3/2,10,12;
 6/7=2,8=2,9=2,10=2/1;
 7/8=1,10=1,12=2,25=1,44=2/1,2,3,16;
 1/10=4,30=1/3;
 99//99;
 ------------
 G4-B3LYP ch4
 ------------
 Redundant internal coordinates taken from checkpoint file:
 ch4-mp2.chk
 Charge =  0 Multiplicity = 1
 C,0,-0.0000172033,0.0000063068,0.000160835
 H,0,-0.0137358654,0.006853762,1.0875209097
 H,0,-0.4001445586,0.9396838719,-0.3729934219
 H,0,-0.6088752029,-0.8237718622,-0.3645520582
 H,0,1.0226018302,-0.1226920784,-0.3484282646
 Recover connectivity data from disk.

 GradGradGradGradGradGradGradGradGradGradGradGradGradGradGradGradGradGrad
 Berny optimization.
 Initialization pass.
                           ----------------------------
                           !    Initial Parameters    !
                           ! (Angstroms and Degrees)  !
 --------------------------                            --------------------------
 ! Name  Definition              Value          Derivative Info.                !
 --------------------------------------------------------------------------------
 ! R1    R(1,2)                  1.0875         calculate D2E/DX2 analytically  !
 ! R2    R(1,3)                  1.0874         calculate D2E/DX2 analytically  !
 ! R3    R(1,4)                  1.0874         calculate D2E/DX2 analytically  !
 ! R4    R(1,5)                  1.0873         calculate D2E/DX2 analytically  !
 ! A1    A(2,1,3)              109.4545         calculate D2E/DX2 analytically  !
 ! A2    A(2,1,4)              109.4563         calculate D2E/DX2 analytically  !
 ! A3    A(2,1,5)              109.4589         calculate D2E/DX2 analytically  !
 ! A4    A(3,1,4)              109.4845         calculate D2E/DX2 analytically  !
 ! A5    A(3,1,5)              109.486          calculate D2E/DX2 analytically  !
 ! A6    A(4,1,5)              109.4871         calculate D2E/DX2 analytically  !
 ! D1    D(2,1,4,3)            119.9785         calculate D2E/DX2 analytically  !
 ! D2    D(2,1,5,3)           -119.981          calculate D2E/DX2 analytically  !
 ! D3    D(2,1,5,4)            119.9839         calculate D2E/DX2 analytically  !
 ! D4    D(3,1,5,4)           -120.0351         calculate D2E/DX2 analytically  !
 --------------------------------------------------------------------------------
 Trust Radius=3.00D-01 FncErr=1.00D-07 GrdErr=1.00D-07
 Number of steps in this run=      2 maximum allowed number of steps=      2.
 GradGradGradGradGradGradGradGradGradGradGradGradGradGradGradGradGradGrad

                          Input orientation:                          
 ---------------------------------------------------------------------
 Center     Atomic      Atomic             Coordinates (Angstroms)
 Number     Number       Type             X           Y           Z
 ---------------------------------------------------------------------
      1          6           0       -0.000017    0.000006    0.000161
      2          1           0       -0.013736    0.006854    1.087521
      3          1           0       -0.400145    0.939684   -0.372993
      4          1           0       -0.608875   -0.823772   -0.364552
      5          1           0        1.022602   -0.122692   -0.348428
 ---------------------------------------------------------------------
                    Distance matrix (angstroms):
                    1          2          3          4          5
     1  C    0.000000
     2  H    1.087468   0.000000
     3  H    1.087355   1.775552   0.000000
     4  H    1.087352   1.775569   1.775786   0.000000
     5  H    1.087345   1.775592   1.775797   1.775807   0.000000
 Stoichiometry    CH4
 Framework group  C1[X(CH4)]
 Deg. of freedom     9
 Full point group                 C1      NOp   1
 Largest Abelian subgroup         C1      NOp   1
 Largest concise Abelian subgroup C1      NOp   1
                         Standard orientation:                         
 ---------------------------------------------------------------------
 Center     Atomic      Atomic             Coordinates (Angstroms)
 Number     Number       Type             X           Y           Z
 ---------------------------------------------------------------------
      1          6           0        0.000011   -0.000009   -0.000090
      2          1           0       -0.050258    0.040988    1.085442
      3          1           0       -0.274595    0.968044   -0.412165
      4          1           0       -0.687923   -0.758356   -0.366136
      5          1           0        1.012711   -0.250625   -0.306602
 ---------------------------------------------------------------------
 Rotational constants (GHZ):    159.0491760    159.0469893    159.0176657
 Standard basis: 6-31G(2df,p) (6D, 7F)
 There are    48 symmetry adapted basis functions of A   symmetry.
 Integral buffers will be    131072 words long.
 Raffenetti 1 integral format.
 Two-electron integral symmetry is turned on.
    48 basis functions,    72 primitive gaussians,    51 cartesian basis functions
     5 alpha electrons        5 beta electrons
       nuclear repulsion energy        13.4677629549 Hartrees.
 NAtoms=    5 NActive=    5 NUniq=    5 SFac= 1.00D+00 NAtFMM=   50 NAOKFM=F Big=F
 One-electron integrals computed using PRISM.
 NBasis=    48 RedAO= T  NBF=    48
 NBsUse=    48 1.00D-06 NBFU=    48
 Initial guess read from the checkpoint file:  ch4-mp2.chk
 B after Tr=     0.000000    0.000000    0.000000
         Rot=    1.000000    0.000000    0.000000    0.000000 Ang=   0.00 deg.
 Initial guess orbital symmetries:
       Occupied  (A) (A) (A) (A) (A)
       Virtual   (A) (A) (A) (A) (A) (A) (A) (A) (A) (A) (A) (A)
                 (A) (A) (A) (A) (A) (A) (A) (A) (A) (A) (A) (A)
                 (A) (A) (A) (A) (A) (A) (A) (A) (A) (A) (A) (A)
                 (A) (A) (A) (A) (A) (A) (A)
 Requested convergence on RMS density matrix=1.00D-08 within 128 cycles.
 Requested convergence on MAX density matrix=1.00D-06.
 Requested convergence on             energy=1.00D-06.
 No special actions if energy rises.
 Keep R1 ints in memory in canonical form, NReq=2846452.
 SCF Done:  E(RHF) =  -40.2034279827     A.U. after    1 cycles
             Convg  =    0.2882D-09             -V/T =  2.0021
 ExpMin= 1.61D-01 ExpMax= 3.05D+03 ExpMxC= 4.57D+02 IAcc=1 IRadAn=         1 AccDes= 0.00D+00
 HarFok:  IExCor=  205 AccDes= 0.00D+00 IRadAn=         1 IDoV=-2
 ScaDFX=  1.000000  1.000000  1.000000  1.000000
 Range of M.O.s used for correlation:     2    48
 NBasis=    48 NAE=     5 NBE=     5 NFC=     1 NFV=     0
 NROrb=     47 NOA=     4 NOB=     4 NVA=    43 NVB=    43

 **** Warning!!: The largest alpha MO coefficient is  0.10469066D+02

 Disk-based method using ON**2 memory for  4 occupieds at a time.
 Permanent disk used for amplitudes=       55255 words.
 Estimated scratch disk usage=     1384424 words.
 Actual    scratch disk usage=     1384424 words.
 JobTyp=1 Pass  1:  I=   2 to   5 NPSUse=  4 ParTrn=T ParDer=T DoDerP=T.
 (rs|ai) integrals will be sorted in core.
 Spin components of T(2) and E(2):
     alpha-alpha T2 =       0.5621776908D-02 E2=     -0.1688163525D-01
     alpha-beta  T2 =       0.4511867421D-01 E2=     -0.1477434978D+00
     beta-beta   T2 =       0.5621776908D-02 E2=     -0.1688163525D-01
 ANorm=    0.1027794838D+01
 E2 =    -0.1815067683D+00 EUMP2 =    -0.40384934751072D+02
 G2DrvN: will do     6 centers at a time, making    1 passes doing MaxLOS=3.
 Calling FoFCou, ICntrl=  3107 FMM=F I1Cent=   0 AccDes= 0.00D+00.
 FoFDir/FoFCou used for L=0 through L=3.
 End of G2Drv Frequency-dependent properties file   721 does not exist.
 End of G2Drv Frequency-dependent properties file   722 does not exist.
          IDoAtm=11111
          Differentiating once with respect to electric field.
                with respect to dipole field.
          Differentiating once with respect to nuclear coordinates.
          Keep R1 ints in memory in canonical form, NReq=2820435.
          There are    18 degrees of freedom in the 1st order CPHF.  IDoFFX=5.
     15 vectors produced by pass  0 Test12= 1.19D-15 5.56D-09 XBig12= 2.77D+00 1.03D+00.
 AX will form    15 AO Fock derivatives at one time.
     15 vectors produced by pass  1 Test12= 1.19D-15 5.56D-09 XBig12= 3.15D-02 8.13D-02.
     15 vectors produced by pass  2 Test12= 1.19D-15 5.56D-09 XBig12= 7.91D-05 4.41D-03.
     15 vectors produced by pass  3 Test12= 1.19D-15 5.56D-09 XBig12= 6.86D-07 3.25D-04.
     15 vectors produced by pass  4 Test12= 1.19D-15 5.56D-09 XBig12= 2.91D-09 2.57D-05.
     13 vectors produced by pass  5 Test12= 1.19D-15 5.56D-09 XBig12= 3.44D-12 1.19D-06.
      4 vectors produced by pass  6 Test12= 1.19D-15 5.56D-09 XBig12= 5.38D-15 2.88D-08.
 Inverted reduced A of dimension    92 with in-core refinement.
 End of Minotr Frequency-dependent properties file   721 does not exist.
 End of Minotr Frequency-dependent properties file   722 does not exist.
 MDV=  4026531840.
 Form MO integral derivatives with frozen-active canonical formalism.
 Discarding MO integrals.
 Reordered first order wavefunction length =        92450
 In DefCFB: NBatch=  1 ICI=  5 ICA= 43 LFMax= 43
            Large arrays: LIAPS=     2105280 LIARS=     2379405 words.
 Semi-Direct transformation.
 ModeAB=           2 MOrb=             5 LenV=    4026280211
 LASXX=       251605 LTotXX=      251605 LenRXX=      251605
 LTotAB=      267255 MaxLAS=      318240 LenRXY=      318240
 NonZer=      503210 LenScr=     1509376 LnRSAI=           0
 LnScr1=           0 LExtra=           0 Total=      2079221
 MaxDsk=          -1 SrtSym=           F ITran=            4
 JobTyp=0 Pass  1:  I=   1 to   5.
 (rs|ai) integrals will be sorted in core.
 SymMOI:  orbitals are not symmetric.
 Spin components of T(2) and E(2):
     alpha-alpha T2 =       0.5621776908D-02 E2=     -0.1688163525D-01
     alpha-beta  T2 =       0.4511867421D-01 E2=     -0.1477434978D+00
     beta-beta   T2 =       0.5621776908D-02 E2=     -0.1688163525D-01
 ANorm=    0.1453521399D+01
 E2 =    -0.1815067683D+00 EUMP2 =    -0.40384934751072D+02
          IDoAtm=11111
          Differentiating once with respect to electric field.
                with respect to dipole field.
          Differentiating once with respect to nuclear coordinates.
          There are     1 degrees of freedom in the 1st order CPHF.  IDoFFX=0.
 LinEq1:  Iter=  0 NonCon=     1 RMS=4.38D-03 Max=2.51D-02
 LinEq1:  Iter=  1 NonCon=     1 RMS=1.44D-03 Max=1.01D-02
 LinEq1:  Iter=  2 NonCon=     1 RMS=1.82D-04 Max=1.05D-03
 LinEq1:  Iter=  3 NonCon=     1 RMS=1.08D-05 Max=5.81D-05
 LinEq1:  Iter=  4 NonCon=     1 RMS=5.90D-07 Max=4.67D-06
 LinEq1:  Iter=  5 NonCon=     1 RMS=3.44D-08 Max=2.77D-07
 LinEq1:  Iter=  6 NonCon=     1 RMS=2.06D-09 Max=1.75D-08
 LinEq1:  Iter=  7 NonCon=     0 RMS=7.32D-11 Max=3.98D-10
 Linear equations converged to 1.000D-10 1.000D-09 after     7 iterations.
 End of Minotr Frequency-dependent properties file   721 does not exist.
 End of Minotr Frequency-dependent properties file   722 does not exist.
 Symmetrizing basis deriv contribution to polar:
 IMax=3 JMax=2 DiffMx= 0.00D+00
 G2DrvN: will do     6 centers at a time, making    1 passes doing MaxLOS=3.
 Calling FoFCou, ICntrl=  3107 FMM=F I1Cent=   0 AccDes= 0.00D+00.
 FoFDir/FoFCou used for L=0 through L=3.
 End of G2Drv Frequency-dependent properties file   721 does not exist.
 End of G2Drv Frequency-dependent properties file   722 does not exist.
 R2 and R3 integrals will be kept in memory, NReq=     3699602.
 DD1Dir will call FoFMem   1 times, MxPair=        30
 NAB=    15 NAA=     0 NBB=     0.
 Discarding MO integrals.

 **********************************************************************

            Population analysis using the SCF density.

 **********************************************************************

 Orbital symmetries:
       Occupied  (A) (A) (A) (A) (A)
       Virtual   (A) (A) (A) (A) (A) (A) (A) (A) (A) (A) (A) (A)
                 (A) (A) (A) (A) (A) (A) (A) (A) (A) (A) (A) (A)
                 (A) (A) (A) (A) (A) (A) (A) (A) (A) (A) (A) (A)
                 (A) (A) (A) (A) (A) (A) (A)
 The electronic state is 1-A.
 Alpha  occ. eigenvalues --  -11.21077  -0.94216  -0.54325  -0.54324  -0.54313
 Alpha virt. eigenvalues --    0.25446   0.32533   0.32536   0.32537   0.69927
 Alpha virt. eigenvalues --    0.69927   0.69928   0.97394   0.97394   0.99586
 Alpha virt. eigenvalues --    0.99595   0.99596   1.15841   1.23916   1.98782
 Alpha virt. eigenvalues --    1.98784   1.98784   2.26324   2.26332   2.26333
 Alpha virt. eigenvalues --    2.73096   2.73130   2.73134   2.97155   3.21568
 Alpha virt. eigenvalues --    3.21587   3.21588   3.35481   3.35483   3.49180
 Alpha virt. eigenvalues --    4.06150   4.06157   4.06220   4.30911   4.30916
 Alpha virt. eigenvalues --    4.30972   4.63877   4.63877   5.16259   5.16259
 Alpha virt. eigenvalues --    5.16260   5.72875  11.69590
          Condensed to atoms (all electrons):
              1          2          3          4          5
     1  C    4.966821   0.403201   0.403223   0.403224   0.403225
     2  H    0.403201   0.522444  -0.023514  -0.023513  -0.023511
     3  H    0.403223  -0.023514   0.522346  -0.023494  -0.023493
     4  H    0.403224  -0.023513  -0.023494   0.522342  -0.023492
     5  H    0.403225  -0.023511  -0.023493  -0.023492   0.522335
 Mulliken atomic charges:
              1
     1  C   -0.579693
     2  H    0.144893
     3  H    0.144931
     4  H    0.144933
     5  H    0.144936
 Sum of Mulliken atomic charges =   0.00000
 Mulliken charges with hydrogens summed into heavy atoms:
              1
     1  C    0.000000
 Sum of Mulliken charges with hydrogens summed into heavy atoms =   0.00000
 APT atomic charges:
              1
     1  C   -0.041827
     2  H    0.010399
     3  H    0.010472
     4  H    0.010475
     5  H    0.010481
 Sum of APT charges=   0.00000
 APT Atomic charges with hydrogens summed into heavy atoms:
              1
     1  C    0.000000
     2  H    0.000000
     3  H    0.000000
     4  H    0.000000
     5  H    0.000000
 Sum of APT charges=   0.00000
 Electronic spatial extent (au):  <R**2>=             35.4222
 Charge=              0.0000 electrons
 Dipole moment (field-independent basis, Debye):
    X=              0.0000    Y=              0.0000    Z=              0.0001  Tot=              0.0001
 Quadrupole moment (field-independent basis, Debye-Ang):
   XX=             -8.3084   YY=             -8.3085   ZZ=             -8.3099
   XY=              0.0000   XZ=              0.0000   YZ=              0.0000
 Traceless Quadrupole moment (field-independent basis, Debye-Ang):
   XX=              0.0005   YY=              0.0004   ZZ=             -0.0010
   XY=              0.0000   XZ=              0.0000   YZ=              0.0000
 Octapole moment (field-independent basis, Debye-Ang**2):
  XXX=              0.5007  YYY=              0.3294  ZZZ=              0.8172  XYY=             -0.4263
  XXY=             -0.3926  XXZ=             -0.3731  XZZ=             -0.0744  YZZ=              0.0633
  YYZ=             -0.4441  XYZ=             -0.0042
 Hexadecapole moment (field-independent basis, Debye-Ang**3):
 XXXX=            -14.9901 YYYY=            -15.0769 ZZZZ=            -14.7853 XXXY=             -0.0423
 XXXZ=             -0.2414 YYYX=              0.0442 YYYZ=             -0.2648 ZZZX=             -0.0512
 ZZZY=              0.0368 XXYY=             -5.0219 XXZZ=             -5.3151 YYZZ=             -5.2284
 XXYZ=              0.2280 YYXZ=              0.2926 ZZXY=             -0.0019
 N-N= 1.346776295488D+01 E-N=-1.198952271707D+02  KE= 4.011792325867D+01
  Exact polarizability:  12.851   0.000  12.851   0.000   0.000  12.851
 Approx polarizability:  10.787   0.000  10.787   0.000   0.000  10.787
 Calling FoFJK, ICntrl=    100127 FMM=F ISym2X=0 I1Cent= 0 IOpClX= 0 NMat=1 NMatS=1 NMatT=0.
 Full mass-weighted force constant matrix:
 Low frequencies ---  -45.2571  -44.1412  -44.0506    0.0006    0.0011    0.0013
 Low frequencies --- 1369.8382 1370.2162 1370.2466
 Harmonic frequencies (cm**-1), IR intensities (KM/Mole), Raman scattering
 activities (A**4/AMU), depolarization ratios for plane and unpolarized
 incident light, reduced masses (AMU), force constants (mDyne/A),
 and normal coordinates:
                     1                      2                      3
                     A                      A                      A
 Frequencies --  1369.8382              1370.2162              1370.2466
 Red. masses --     1.1787                 1.1786                 1.1786
 Frc consts  --     1.3031                 1.3038                 1.3038
 IR Inten    --    13.2855                13.2638                13.2614
  Atom  AN      X      Y      Z        X      Y      Z        X      Y      Z
     1   6     0.00   0.00   0.12     0.01   0.12   0.00     0.12  -0.01   0.00
     2   1    -0.02   0.02   0.09    -0.03  -0.60   0.02    -0.60   0.03  -0.03
     3   1     0.07  -0.23  -0.51    -0.18  -0.05  -0.22    -0.55  -0.16   0.07
     4   1     0.16   0.15  -0.52     0.29  -0.25   0.18    -0.34   0.32   0.13
     5   1    -0.19   0.04  -0.54    -0.15  -0.57   0.05     0.01  -0.12  -0.20
                     4                      5                      6
                     A                      A                      A
 Frequencies --  1600.7516              1600.7552              3111.0401
 Red. masses --     1.0078                 1.0078                 1.0078
 Frc consts  --     1.5215                 1.5215                 5.7471
 IR Inten    --     0.0000                 0.0000                 0.0002
  Atom  AN      X      Y      Z        X      Y      Z        X      Y      Z
     1   6     0.00   0.00   0.00     0.00   0.00   0.00     0.00   0.00   0.00
     2   1     0.50  -0.03   0.02     0.03   0.50  -0.02    -0.02   0.02   0.50
     3   1    -0.43  -0.20  -0.18    -0.23   0.12   0.43    -0.13   0.44  -0.19
     4   1    -0.19   0.33  -0.32     0.34  -0.14  -0.34    -0.32  -0.35  -0.17
     5   1     0.12  -0.10   0.47    -0.14  -0.48  -0.07     0.46  -0.12  -0.14
                     7                      8                      9
                     A                      A                      A
 Frequencies --  3253.8811              3254.8115              3254.8751
 Red. masses --     1.1019                 1.1020                 1.1020
 Frc consts  --     6.8739                 6.8782                 6.8785
 IR Inten    --    12.3513                12.3095                12.3059
  Atom  AN      X      Y      Z        X      Y      Z        X      Y      Z
     1   6     0.00   0.00  -0.09     0.01   0.09   0.00     0.09  -0.01   0.00
     2   1    -0.04   0.03   0.86     0.00   0.02  -0.01     0.02   0.00   0.02
     3   1     0.08  -0.28   0.10     0.20  -0.67   0.29    -0.06   0.26  -0.11
     4   1     0.19   0.21   0.08    -0.41  -0.44  -0.22    -0.30  -0.36  -0.17
     5   1    -0.25   0.06   0.06     0.12  -0.01  -0.04    -0.75   0.19   0.23

 -------------------
 - Thermochemistry -
 -------------------
 Temperature   298.150 Kelvin.  Pressure   1.00000 Atm.
 Atom     1 has atomic number  6 and mass  12.00000
 Atom     2 has atomic number  1 and mass   1.00783
 Atom     3 has atomic number  1 and mass   1.00783
 Atom     4 has atomic number  1 and mass   1.00783
 Atom     5 has atomic number  1 and mass   1.00783
 Molecular mass:    16.03130 amu.
 Principal axes and moments of inertia in atomic units:
                           1         2         3
     Eigenvalues --    11.34706  11.34722  11.34931
           X            1.00000   0.00001   0.00001
           Y           -0.00001   1.00000   0.00000
           Z           -0.00001   0.00000   1.00000
 This molecule is an asymmetric top.
 Rotational symmetry number  1.
 Rotational temperatures (Kelvin)      7.63315     7.63304     7.63164
 Rotational constants (GHZ):         159.04918   159.04699   159.01767
 Zero-point vibrational energy     120741.6 (Joules/Mol)
                                   28.85793 (Kcal/Mol)
 Vibrational temperatures:   1970.89  1971.43  1971.48  2303.12  2303.13
          (Kelvin)           4476.09  4681.60  4682.94  4683.03
 
 Zero-point correction=                           0.045988 (Hartree/Particle)
 Thermal correction to Energy=                    0.048852
 Thermal correction to Enthalpy=                  0.049796
 Thermal correction to Gibbs Free Energy=         0.026334
 Sum of electronic and zero-point Energies=            -40.338947
 Sum of electronic and thermal Energies=               -40.336082
 Sum of electronic and thermal Enthalpies=             -40.335138
 Sum of electronic and thermal Free Energies=          -40.358601
 
                     E (Thermal)             CV                S
                      KCal/Mol        Cal/Mol-Kelvin    Cal/Mol-Kelvin
 Total                   30.655              6.418             49.381
 Electronic               0.000              0.000              0.000
 Translational            0.889              2.981             34.261
 Rotational               0.889              2.981             15.043
 Vibrational             28.878              0.457              0.076
                       Q            Log10(Q)             Ln(Q)
 Total Bot       0.771399D-12        -12.112721        -27.890571
 Total V=0       0.109714D+10          9.040263         20.815975
 Vib (Bot)       0.706567D-21        -21.150847        -48.701625
 Vib (V=0)       0.100493D+01          0.002137          0.004921
 Electronic      0.100000D+01          0.000000          0.000000
 Translational   0.252295D+07          6.401908         14.740939
 Rotational      0.432731D+03          2.636218          6.070116
 ***** Axes restored to original set *****
 -------------------------------------------------------------------
 Center     Atomic                   Forces (Hartrees/Bohr)
 Number     Number              X              Y              Z
 -------------------------------------------------------------------
      1        6          -0.000012656    0.000006511    0.000146816
      2        1           0.000002126   -0.000001352    0.000107585
      3        1          -0.000056633    0.000136917   -0.000087263
      4        1          -0.000087146   -0.000122410   -0.000085146
      5        1           0.000154310   -0.000019667   -0.000081991
 -------------------------------------------------------------------
 Cartesian Forces:  Max     0.000154310 RMS     0.000090795

 GradGradGradGradGradGradGradGradGradGradGradGradGradGradGradGradGradGrad
 Berny optimization.
 Internal  Forces:  Max     0.000173629 RMS     0.000085154
 Search for a local minimum.
 Step number   1 out of a maximum of    2
 All quantities printed in internal units (Hartrees-Bohrs-Radians)
 Second derivative matrix not updated -- analytic derivatives used.
 The second derivative matrix:
                          R1        R2        R3        R4        A1
           R1           0.36714
           R2           0.00061   0.36738
           R3           0.00061   0.00060   0.36738
           R4           0.00061   0.00060   0.00060   0.36740
           A1           0.00196   0.00196  -0.00123  -0.00268   0.02038
           A2           0.00307  -0.00079   0.00342  -0.00569  -0.00908
           A3           0.00599  -0.00481  -0.00532   0.00414  -0.01353
           A4          -0.00079   0.00307   0.00341  -0.00569  -0.00909
           A5          -0.00481   0.00599  -0.00532   0.00414  -0.01351
           A6          -0.00541  -0.00542   0.00505   0.00577   0.02484
           D1           0.00379   0.00379   0.00267  -0.01025   0.01383
           D2          -0.00312  -0.00312   0.00802  -0.00178  -0.00840
           D3           0.00411  -0.00723   0.00401  -0.00089  -0.00421
           D4           0.00723  -0.00411  -0.00401   0.00089   0.00419
                          A2        A3        A4        A5        A6
           A2           0.03837
           A3          -0.02336   0.07496
           A4          -0.00222   0.02580   0.03840
           A5           0.02579  -0.03641  -0.02336   0.07496
           A6          -0.02950  -0.02745  -0.02953  -0.02749   0.08910
           D1           0.01101  -0.01508   0.01101  -0.01505  -0.00571
           D2           0.00964  -0.00705   0.00963  -0.00704   0.00321
           D3           0.01463   0.00050  -0.00499  -0.00753   0.00160
           D4           0.00499   0.00755  -0.01461  -0.00049  -0.00161
                          D1        D2        D3        D4
           D1           0.03042
           D2           0.00151   0.01891
           D3           0.00075   0.00946   0.01920
           D4          -0.00076  -0.00945   0.00975   0.01920
 ITU=  0
     Eigenvalues ---    0.03882   0.04371   0.06642   0.13574   0.13633
     Eigenvalues ---    0.36746   0.36765   0.36792   0.36914
 Angle between quadratic step and forces=  42.63 degrees.
 Linear search not attempted -- first point.
 Iteration  1 RMS(Cart)=  0.00026616 RMS(Int)=  0.00000011
 Iteration  2 RMS(Cart)=  0.00000007 RMS(Int)=  0.00000005
 Variable       Old X    -DE/DX   Delta X   Delta X   Delta X     New X
                                 (Linear)    (Quad)   (Total)
    R1        2.05502   0.00011   0.00000   0.00025   0.00025   2.05527
    R2        2.05480   0.00017   0.00000   0.00047   0.00047   2.05527
    R3        2.05480   0.00017   0.00000   0.00047   0.00047   2.05527
    R4        2.05478   0.00017   0.00000   0.00049   0.00049   2.05527
    A1        1.91034   0.00001   0.00000   0.00029   0.00029   1.91063
    A2        1.91037   0.00001   0.00000   0.00026   0.00026   1.91063
    A3        1.91042   0.00002   0.00000   0.00022   0.00022   1.91063
    A4        1.91087   0.00000   0.00000  -0.00023  -0.00023   1.91063
    A5        1.91089  -0.00002   0.00000  -0.00026  -0.00026   1.91063
    A6        1.91091  -0.00002   0.00000  -0.00028  -0.00028   1.91063
    D1        2.09402   0.00002   0.00000   0.00038   0.00038   2.09440
    D2       -2.09406  -0.00001   0.00000  -0.00033  -0.00033  -2.09440
    D3        2.09411   0.00001   0.00000   0.00028   0.00028   2.09440
    D4       -2.09501   0.00002   0.00000   0.00061   0.00061  -2.09439
         Item               Value     Threshold  Converged?
 Maximum Force            0.000174     0.000450     YES
 RMS     Force            0.000085     0.000300     YES
 Maximum Displacement     0.000596     0.001800     YES
 RMS     Displacement     0.000266     0.001200     YES
 Predicted change in Energy=-1.592206D-07
 Optimization completed.
    -- Stationary point found.
                           ----------------------------
                           !   Optimized Parameters   !
                           ! (Angstroms and Degrees)  !
 --------------------------                            --------------------------
 ! Name  Definition              Value          Derivative Info.                !
 --------------------------------------------------------------------------------
 ! R1    R(1,2)                  1.0875         -DE/DX =    0.0001              !
 ! R2    R(1,3)                  1.0874         -DE/DX =    0.0002              !
 ! R3    R(1,4)                  1.0874         -DE/DX =    0.0002              !
 ! R4    R(1,5)                  1.0873         -DE/DX =    0.0002              !
 ! A1    A(2,1,3)              109.4545         -DE/DX =    0.0                 !
 ! A2    A(2,1,4)              109.4563         -DE/DX =    0.0                 !
 ! A3    A(2,1,5)              109.4589         -DE/DX =    0.0                 !
 ! A4    A(3,1,4)              109.4845         -DE/DX =    0.0                 !
 ! A5    A(3,1,5)              109.486          -DE/DX =    0.0                 !
 ! A6    A(4,1,5)              109.4871         -DE/DX =    0.0                 !
 ! D1    D(2,1,4,3)            119.9785         -DE/DX =    0.0                 !
 ! D2    D(2,1,5,3)           -119.981          -DE/DX =    0.0                 !
 ! D3    D(2,1,5,4)            119.9839         -DE/DX =    0.0                 !
 ! D4    D(3,1,5,4)           -120.0351         -DE/DX =    0.0                 !
 --------------------------------------------------------------------------------
 GradGradGradGradGradGradGradGradGradGradGradGradGradGradGradGradGradGrad

 1\1\GINC-PLUTO\Freq\RMP2-FC\6-31G(2df,p)\C1H4\JMSOLANO\25-Apr-2025\0\\
 #N Geom=AllCheck Guess=TCheck SCRF=Check MP2/6-31g(2df,p) Freq\\G4-B3L
 YP ch4\\0,1\C,-0.0000172033,0.0000063068,0.000160835\H,-0.0137358654,0
 .006853762,1.0875209097\H,-0.4001445586,0.9396838719,-0.3729934219\H,-
 0.6088752029,-0.8237718622,-0.3645520582\H,1.0226018302,-0.1226920784,
 -0.3484282646\\Version=EM64L-G09RevB.01\State=1-A\HF=-40.203428\MP2=-4
 0.3849348\RMSD=2.882e-10\RMSF=9.080e-05\ZeroPoint=0.045988\Thermal=0.0
 488523\Dipole=-0.0000079,0.0000049,0.0000771\DipoleDeriv=-0.0418302,0.
 0000006,-0.0000002,0.0000006,-0.0418318,0.0000005,-0.0000002,0.0000005
 ,-0.0418188,0.0672867,0.0000128,0.0021534,0.0000128,0.0673145,-0.00107
 51,0.0021491,-0.0010724,-0.1034037,0.0442068,0.0542234,-0.0215586,0.05
 42212,-0.0600447,0.0506322,-0.0215421,0.0505954,0.0472534,0.0138382,-0
 .0723316,-0.0320607,-0.0723277,-0.0305659,-0.0433814,-0.0320366,-0.043
 3511,0.0481537,-0.0835015,0.0180949,0.0514661,0.0180932,0.0651279,-0.0
 061762,0.0514298,-0.0061724,0.0498153\Polar=12.8512329,0.0000069,12.85
 12707,-0.0000593,0.0000368,12.8513189\PG=C01 [X(C1H4)]\NImag=0\\0.5836
 2625,0.00000226,0.58358738,-0.00000877,0.00000486,0.58305576,-0.047705
 84,0.00002315,0.00371361,0.04692562,0.00002315,-0.04766801,-0.00185360
 ,-0.00002536,0.04688686,0.00371316,-0.00185328,-0.34203254,-0.00403749
 ,0.00201504,0.36707301,-0.08754903,0.09371716,-0.03722158,-0.00112818,
 -0.00199867,0.00101300,0.09024470,0.09371695,-0.26773259,0.08741394,-0
 .00167790,0.00197801,-0.00220326,-0.10192570,0.28621283,-0.03722014,0.
 08741075,-0.08233130,-0.01292472,0.03023066,-0.00867758,0.04048444,-0.
 09507703,0.08459891,-0.14004548,-0.12502100,-0.05535885,-0.00014460,0.
 00248823,0.00146651,0.00768479,0.01112991,0.00596942,0.14733844,-0.125
 02057,-0.21679396,-0.07490117,0.00199949,0.00074211,0.00181492,-0.0174
 2076,-0.01881416,-0.01105136,0.13597120,0.23081236,-0.05535677,-0.0748
 9860,-0.08077912,-0.01965388,-0.02646923,-0.00842408,0.00854453,0.0095
 4900,0.00332106,0.06021152,0.08146718,0.08290941,-0.30832590,0.0312784
 2,0.08887560,0.00205301,-0.00048736,-0.00215518,-0.00925228,-0.0012432
 7,0.00369100,-0.01483315,0.00447063,0.00625460,0.33035832,0.03127820,-
 0.05139283,-0.01066402,-0.00031939,-0.00193897,0.00022658,0.02762796,-
 0.00164409,-0.01151303,-0.02456834,0.00405365,0.01035165,-0.03401842,0
 .05092224,0.08887252,-0.01066373,-0.07791279,0.03290247,-0.00392287,-0
 .00793881,-0.01282039,0.00031735,0.00308892,-0.01228859,0.00267042,0.0
 0297274,-0.09666602,0.01159882,0.07978994\\0.00001266,-0.00000651,-0.0
 0014682,-0.00000213,0.00000135,-0.00010759,0.00005663,-0.00013692,0.00
 008726,0.00008715,0.00012241,0.00008515,-0.00015431,0.00001967,0.00008
 199\\\@


 YE HAVE SOWN MUCH, AND BRING IN LITTLE.
 YE EAT, BUT YE HAVE NOT ENOUGH.
 YE DRINK, BUT YE ARE NOT FILLED WITH DRINK.
 YE CLOTHE YOU, BUT THERE IS NONE WARM.
 AND HE THAT EARNETH WAGES EARNETH WAGES TO PUT
 IT INTO A BAG WITH HOLES.
                                     HAGGAI I,6
 Job cpu time:  0 days  0 hours  0 minutes 18.8 seconds.
 File lengths (MBytes):  RWF=     45 Int=      0 D2E=      0 Chk=      1 Scr=      1
 Normal termination of Gaussian 09 at Fri Apr 25 13:41:43 2025.
 Initial command:
 /usr/local/g09/l1.exe /home/g09scr/Gau-11772.inp -scrdir=/home/g09scr/
 Entering Link 1 = /usr/local/g09/l1.exe PID=     11971.
  
 Copyright (c) 1988,1990,1992,1993,1995,1998,2003,2009,2010,
            Gaussian, Inc.  All Rights Reserved.
  
 This is part of the Gaussian(R) 09 program.  It is based on
 the Gaussian(R) 03 system (copyright 2003, Gaussian, Inc.),
 the Gaussian(R) 98 system (copyright 1998, Gaussian, Inc.),
 the Gaussian(R) 94 system (copyright 1995, Gaussian, Inc.),
 the Gaussian 92(TM) system (copyright 1992, Gaussian, Inc.),
 the Gaussian 90(TM) system (copyright 1990, Gaussian, Inc.),
 the Gaussian 88(TM) system (copyright 1988, Gaussian, Inc.),
 the Gaussian 86(TM) system (copyright 1986, Carnegie Mellon
 University), and the Gaussian 82(TM) system (copyright 1983,
 Carnegie Mellon University). Gaussian is a federally registered
 trademark of Gaussian, Inc.
  
 This software contains proprietary and confidential information,
 including trade secrets, belonging to Gaussian, Inc.
  
 This software is provided under written license and may be
 used, copied, transmitted, or stored only in accord with that
 written license.
  
 The following legend is applicable only to US Government
 contracts under FAR:
  
                    RESTRICTED RIGHTS LEGEND
  
 Use, reproduction and disclosure by the US Government is
 subject to restrictions as set forth in subparagraphs (a)
 and (c) of the Commercial Computer Software - Restricted
 Rights clause in FAR 52.227-19.
  
 Gaussian, Inc.
 340 Quinnipiac St., Bldg. 40, Wallingford CT 06492
  
  
 ---------------------------------------------------------------
 Warning -- This program may not be used in any manner that
 competes with the business of Gaussian, Inc. or will provide
 assistance to any competitor of Gaussian, Inc.  The licensee
 of this program is prohibited from giving any competitor of
 Gaussian, Inc. access to this program.  By using this program,
 the user acknowledges that Gaussian, Inc. is engaged in the
 business of creating and licensing software in the field of
 computational chemistry and represents and warrants to the
 licensee that it is not a competitor of Gaussian, Inc. and that
 it will not use this program in any manner prohibited above.
 ---------------------------------------------------------------
  

 Cite this work as:
 Gaussian 09, Revision B.01,
 M. J. Frisch, G. W. Trucks, H. B. Schlegel, G. E. Scuseria, 
 M. A. Robb, J. R. Cheeseman, G. Scalmani, V. Barone, B. Mennucci, 
 G. A. Petersson, H. Nakatsuji, M. Caricato, X. Li, H. P. Hratchian, 
 A. F. Izmaylov, J. Bloino, G. Zheng, J. L. Sonnenberg, M. Hada, 
 M. Ehara, K. Toyota, R. Fukuda, J. Hasegawa, M. Ishida, T. Nakajima, 
 Y. Honda, O. Kitao, H. Nakai, T. Vreven, J. A. Montgomery, Jr., 
 J. E. Peralta, F. Ogliaro, M. Bearpark, J. J. Heyd, E. Brothers, 
 K. N. Kudin, V. N. Staroverov, T. Keith, R. Kobayashi, J. Normand, 
 K. Raghavachari, A. Rendell, J. C. Burant, S. S. Iyengar, J. Tomasi, 
 M. Cossi, N. Rega, J. M. Millam, M. Klene, J. E. Knox, J. B. Cross, 
 V. Bakken, C. Adamo, J. Jaramillo, R. Gomperts, R. E. Stratmann, 
 O. Yazyev, A. J. Austin, R. Cammi, C. Pomelli, J. W. Ochterski, 
[...]
 Alpha virt. eigenvalues --   10.35700  10.35732  10.35734  23.67567
          Condensed to atoms (all electrons):
              1          2          3          4          5
     1  C    4.689794   0.416057   0.416077   0.416078   0.416079
     2  H    0.416057   0.571265  -0.025282  -0.025281  -0.025279
     3  H    0.416077  -0.025282   0.571203  -0.025259  -0.025259
     4  H    0.416078  -0.025281  -0.025259   0.571199  -0.025258
     5  H    0.416079  -0.025279  -0.025259  -0.025258   0.571194
 Mulliken atomic charges:
              1
     1  C   -0.354084
     2  H    0.088520
     3  H    0.088521
     4  H    0.088522
     5  H    0.088522
 Sum of Mulliken atomic charges =   0.00000
 Mulliken charges with hydrogens summed into heavy atoms:
              1
     1  C    0.000000
 Sum of Mulliken charges with hydrogens summed into heavy atoms =   0.00000
 Electronic spatial extent (au):  <R**2>=             35.6459
 Charge=              0.0000 electrons
 Dipole moment (field-independent basis, Debye):
    X=              0.0000    Y=              0.0000    Z=              0.0001  Tot=              0.0001
 Quadrupole moment (field-independent basis, Debye-Ang):
   XX=             -8.4087   YY=             -8.4088   ZZ=             -8.4103
   XY=              0.0000   XZ=              0.0000   YZ=              0.0000
 Traceless Quadrupole moment (field-independent basis, Debye-Ang):
   XX=              0.0006   YY=              0.0005   ZZ=             -0.0010
   XY=              0.0000   XZ=              0.0000   YZ=              0.0000
 Octapole moment (field-independent basis, Debye-Ang**2):
  XXX=              0.4903  YYY=              0.3225  ZZZ=              0.8002  XYY=             -0.4175
  XXY=             -0.3845  XXZ=             -0.3654  XZZ=             -0.0728  YZZ=              0.0620
  YYZ=             -0.4349  XYZ=             -0.0042
 Hexadecapole moment (field-independent basis, Debye-Ang**3):
 XXXX=            -15.7322 YYYY=            -15.8234 ZZZZ=            -15.5180 XXXY=             -0.0444
 XXXZ=             -0.2532 YYYX=              0.0464 YYYZ=             -0.2778 ZZZX=             -0.0537
 ZZZY=              0.0386 XXYY=             -5.2705 XXZZ=             -5.5782 YYZZ=             -5.4872
 XXYZ=              0.2392 YYXZ=              0.3070 ZZXY=             -0.0020
 N-N= 1.346776295488D+01 E-N=-1.199769909860D+02  KE= 4.017869926577D+01
 1\1\GINC-PLUTO\SP\RHF\GFHFB1\C1H4\JMSOLANO\25-Apr-2025\0\\#N Geom=AllC
 heck Guess=TCheck SCRF=Check HF/GFHFB1 SCF=Tight\\G4-B3LYP ch4\\0,1\C,
 0,-0.0000172033,0.0000063068,0.000160835\H,0,-0.0137358654,0.006853762
 ,1.0875209097\H,0,-0.4001445586,0.9396838719,-0.3729934219\H,0,-0.6088
 752029,-0.8237718622,-0.3645520582\H,0,1.0226018302,-0.1226920784,-0.3
 484282646\\Version=EM64L-G09RevB.01\State=1-A\HF=-40.21602\RMSD=9.599e
 -09\Dipole=-0.0000054,0.0000036,0.0000474\Quadrupole=0.0004185,0.00033
 78,-0.0007563,0.0000081,-0.0000321,0.0000198\PG=C01 [X(C1H4)]\\@


 WE HAVE LEARNED THAT NOTHING IS SIMPLE AND
 RATIONAL EXCEPT WHAT WE OURSELVES HAVE INVENTED;
 THAT GOD THINKS IN TERMS NEITHER OF EUCLID OR RIEMANN; THAT SCIENCE HAS "EXPLAINED" NOTHING;
 THAT THE MORE WE KNOW THE MORE FANTASTIC THE WORLD BECOMES
 AND THE PROFOUNDER THE SURROUNDING DARKNESS.
   --  ALDOUS HUXLEY
 Job cpu time:  0 days  0 hours  0 minutes  5.1 seconds.
 File lengths (MBytes):  RWF=     10 Int=      0 D2E=      0 Chk=      2 Scr=      1
 Normal termination of Gaussian 09 at Fri Apr 25 13:41:47 2025.
 Initial command:
 /usr/local/g09/l1.exe /home/g09scr/Gau-11772.inp -scrdir=/home/g09scr/
 Entering Link 1 = /usr/local/g09/l1.exe PID=     12164.
  
 Copyright (c) 1988,1990,1992,1993,1995,1998,2003,2009,2010,
            Gaussian, Inc.  All Rights Reserved.
  
 This is part of the Gaussian(R) 09 program.  It is based on
 the Gaussian(R) 03 system (copyright 2003, Gaussian, Inc.),
 the Gaussian(R) 98 system (copyright 1998, Gaussian, Inc.),
 the Gaussian(R) 94 system (copyright 1995, Gaussian, Inc.),
 the Gaussian 92(TM) system (copyright 1992, Gaussian, Inc.),
 the Gaussian 90(TM) system (copyright 1990, Gaussian, Inc.),
 the Gaussian 88(TM) system (copyright 1988, Gaussian, Inc.),
 the Gaussian 86(TM) system (copyright 1986, Carnegie Mellon
 University), and the Gaussian 82(TM) system (copyright 1983,
 Carnegie Mellon University). Gaussian is a federally registered
 trademark of Gaussian, Inc.
  
 This software contains proprietary and confidential information,
 including trade secrets, belonging to Gaussian, Inc.
  
 This software is provided under written license and may be
 used, copied, transmitted, or stored only in accord with that
 written license.
  
 The following legend is applicable only to US Government
 contracts under FAR:
  
                    RESTRICTED RIGHTS LEGEND
  
 Use, reproduction and disclosure by the US Government is
 subject to restrictions as set forth in subparagraphs (a)
 and (c) of the Commercial Computer Software - Restricted
 Rights clause in FAR 52.227-19.
  
 Gaussian, Inc.
 340 Quinnipiac St., Bldg. 40, Wallingford CT 06492
  
  
 ---------------------------------------------------------------
 Warning -- This program may not be used in any manner that
 competes with the business of Gaussian, Inc. or will provide
 assistance to any competitor of Gaussian, Inc.  The licensee
 of this program is prohibited from giving any competitor of
 Gaussian, Inc. access to this program.  By using this program,
 the user acknowledges that Gaussian, Inc. is engaged in the
 business of creating and licensing software in the field of
 computational chemistry and represents and warrants to the
 licensee that it is not a competitor of Gaussian, Inc. and that
 it will not use this program in any manner prohibited above.
 ---------------------------------------------------------------
  

 Cite this work as:
 Gaussian 09, Revision B.01,
 M. J. Frisch, G. W. Trucks, H. B. Schlegel, G. E. Scuseria, 
 M. A. Robb, J. R. Cheeseman, G. Scalmani, V. Barone, B. Mennucci, 
 G. A. Petersson, H. Nakatsuji, M. Caricato, X. Li, H. P. Hratchian, 
 A. F. Izmaylov, J. Bloino, G. Zheng, J. L. Sonnenberg, M. Hada, 
 M. Ehara, K. Toyota, R. Fukuda, J. Hasegawa, M. Ishida, T. Nakajima, 
 Y. Honda, O. Kitao, H. Nakai, T. Vreven, J. A. Montgomery, Jr., 
 J. E. Peralta, F. Ogliaro, M. Bearpark, J. J. Heyd, E. Brothers, 
 K. N. Kudin, V. N. Staroverov, T. Keith, R. Kobayashi, J. Normand, 
 K. Raghavachari, A. Rendell, J. C. Burant, S. S. Iyengar, J. Tomasi, 
 M. Cossi, N. Rega, J. M. Millam, M. Klene, J. E. Knox, J. B. Cross, 
 V. Bakken, C. Adamo, J. Jaramillo, R. Gomperts, R. E. Stratmann, 
 O. Yazyev, A. J. Austin, R. Cammi, C. Pomelli, J. W. Ochterski, 
 R. L. Martin, K. Morokuma, V. G. Zakrzewski, G. A. Voth, 
 P. Salvador, J. J. Dannenberg, S. Dapprich, A. D. Daniels, 
 O. Farkas, J. B. Foresman, J. V. Ortiz, J. Cioslowski, 
 and D. J. Fox, Gaussian, Inc., Wallingford CT, 2010.
 
 ******************************************
 Gaussian 09:  EM64L-G09RevB.01 12-Aug-2010
                25-Apr-2025 
 ******************************************
 %chk=ch4-mp2.chk
 %nprocshared=4
 Will use up to    4 processors via shared memory.
 %mem=30GB
 ------------------------------------------------------------
 #N Geom=AllCheck Guess=TCheck SCRF=Check HF/GFHFB2 SCF=Tight
 ------------------------------------------------------------
 1/29=7,38=1,40=1/1;
 2/12=2,40=1/2;
 3/5=37,11=9,14=-4,16=1,25=1,30=1,70=2,116=-2/1,2,3;
 4/5=101/1;
 5/5=2,32=2/2;
 6/7=2,8=2,9=2,10=2,28=1/1;
 99/5=1,9=1/99;
 ------------
 G4-B3LYP ch4
 ------------
 Redundant internal coordinates taken from checkpoint file:
 ch4-mp2.chk
 Charge =  0 Multiplicity = 1
 C,0,-0.0000172033,0.0000063068,0.000160835
 H,0,-0.0137358654,0.006853762,1.0875209097
 H,0,-0.4001445586,0.9396838719,-0.3729934219
 H,0,-0.6088752029,-0.8237718622,-0.3645520582
 H,0,1.0226018302,-0.1226920784,-0.3484282646
 Recover connectivity data from disk.
                          Input orientation:                          
 ---------------------------------------------------------------------
 Center     Atomic      Atomic             Coordinates (Angstroms)
 Number     Number       Type             X           Y           Z
 ---------------------------------------------------------------------
      1          6           0       -0.000017    0.000006    0.000161
      2          1           0       -0.013736    0.006854    1.087521
      3          1           0       -0.400145    0.939684   -0.372993
      4          1           0       -0.608875   -0.823772   -0.364552
      5          1           0        1.022602   -0.122692   -0.348428
 ---------------------------------------------------------------------
                    Distance matrix (angstroms):
                    1          2          3          4          5
     1  C    0.000000
     2  H    1.087468   0.000000
     3  H    1.087355   1.775552   0.000000
     4  H    1.087352   1.775569   1.775786   0.000000
     5  H    1.087345   1.775592   1.775797   1.775807   0.000000
 Stoichiometry    CH4
 Framework group  C1[X(CH4)]
 Deg. of freedom     9
 Full point group                 C1      NOp   1
 Largest Abelian subgroup         C1      NOp   1
 Largest concise Abelian subgroup C1      NOp   1
                         Standard orientation:                         
 ---------------------------------------------------------------------
 Center     Atomic      Atomic             Coordinates (Angstroms)
 Number     Number       Type             X           Y           Z
 ---------------------------------------------------------------------
      1          6           0        0.000011   -0.000009   -0.000090
      2          1           0       -0.050258    0.040988    1.085442
      3          1           0       -0.274595    0.968044   -0.412165
      4          1           0       -0.687923   -0.758356   -0.366136
      5          1           0        1.012711   -0.250625   -0.306602
 ---------------------------------------------------------------------
 Rotational constants (GHZ):    159.0491760    159.0469893    159.0176657
 Standard basis: GFHFB2 (5D, 7F)
 There are   191 symmetry adapted basis functions of A   symmetry.
 Integral buffers will be    131072 words long.
 Raffenetti 1 integral format.
 Two-electron integral symmetry is turned on.
   191 basis functions,   269 primitive gaussians,   234 cartesian basis functions
     5 alpha electrons        5 beta electrons
       nuclear repulsion energy        13.4677629549 Hartrees.
 NAtoms=    5 NActive=    5 NUniq=    5 SFac= 1.00D+00 NAtFMM=   50 NAOKFM=F Big=F
 One-electron integrals computed using PRISM.
 NBasis=   191 RedAO= T  NBF=   191
 NBsUse=   191 1.00D-06 NBFU=   191
 Initial guess read from the checkpoint file:  ch4-mp2.chk
 B after Tr=     0.000000    0.000000    0.000000
         Rot=    1.000000    0.000000    0.000000    0.000000 Ang=   0.00 deg.
 Initial guess orbital symmetries:
       Occupied  (A) (A) (A) (A) (A)
       Virtual   (A) (A) (A) (A) (A) (A) (A) (A) (A) (A) (A) (A)
                 (A) (A) (A) (A) (A) (A) (A) (A) (A) (A) (A) (A)
                 (A) (A) (A) (A) (A) (A) (A) (A) (A) (A) (A) (A)
                 (A) (A) (A) (A) (A) (A) (A) (A) (A) (A) (A) (A)
                 (A) (A) (A) (A) (A) (A) (A) (A) (A) (A) (A) (A)
                 (A) (A) (A) (A) (A) (A) (A) (A) (A) (A) (A) (A)
                 (A) (A) (A) (A) (A) (A) (A) (A) (A) (A) (A) (A)
                 (A) (A) (A) (A) (A) (A) (A) (A) (A) (A) (A) (A)
                 (A) (A) (A) (A) (A) (A) (A) (A) (A) (A) (A) (A)
                 (A) (A) (A) (A) (A) (A) (A) (A) (A) (A) (A) (A)
                 (A) (A) (A) (A) (A) (A) (A) (A) (A) (A) (A) (A)
                 (A) (A) (A) (A) (A) (A) (A) (A) (A) (A) (A) (A)
                 (A) (A) (A) (A) (A) (A) (A) (A) (A) (A) (A) (A)
                 (A) (A) (A) (A) (A) (A) (A) (A) (A) (A) (A) (A)
                 (A) (A) (A) (A) (A) (A) (A) (A) (A) (A) (A) (A)
                 (A) (A) (A) (A) (A) (A)
 Requested convergence on RMS density matrix=1.00D-08 within 128 cycles.
 Requested convergence on MAX density matrix=1.00D-06.
 Requested convergence on             energy=1.00D-06.
 No special actions if energy rises.
 Keep R1 ints in memory in canonical form, NReq=394635842.
 SCF Done:  E(RHF) =  -40.2168831153     A.U. after    7 cycles
             Convg  =    0.1000D-08             -V/T =  2.0009

 **********************************************************************

            Population analysis using the SCF density.

 **********************************************************************

 Orbital symmetries:
       Occupied  (A) (A) (A) (A) (A)
       Virtual   (A) (A) (A) (A) (A) (A) (A) (A) (A) (A) (A) (A)
                 (A) (A) (A) (A) (A) (A) (A) (A) (A) (A) (A) (A)
                 (A) (A) (A) (A) (A) (A) (A) (A) (A) (A) (A) (A)
                 (A) (A) (A) (A) (A) (A) (A) (A) (A) (A) (A) (A)
                 (A) (A) (A) (A) (A) (A) (A) (A) (A) (A) (A) (A)
                 (A) (A) (A) (A) (A) (A) (A) (A) (A) (A) (A) (A)
                 (A) (A) (A) (A) (A) (A) (A) (A) (A) (A) (A) (A)
                 (A) (A) (A) (A) (A) (A) (A) (A) (A) (A) (A) (A)
                 (A) (A) (A) (A) (A) (A) (A) (A) (A) (A) (A) (A)
                 (A) (A) (A) (A) (A) (A) (A) (A) (A) (A) (A) (A)
                 (A) (A) (A) (A) (A) (A) (A) (A) (A) (A) (A) (A)
                 (A) (A) (A) (A) (A) (A) (A) (A) (A) (A) (A) (A)
                 (A) (A) (A) (A) (A) (A) (A) (A) (A) (A) (A) (A)
                 (A) (A) (A) (A) (A) (A) (A) (A) (A) (A) (A) (A)
                 (A) (A) (A) (A) (A) (A) (A) (A) (A) (A) (A) (A)
                 (A) (A) (A) (A) (A) (A)
 The electronic state is 1-A.
 Alpha  occ. eigenvalues --  -11.20486  -0.94330  -0.54544  -0.54544  -0.54532
 Alpha virt. eigenvalues --    0.05444   0.06264   0.06264   0.06264   0.18543
 Alpha virt. eigenvalues --    0.18544   0.18545   0.22720   0.27075   0.27075
 Alpha virt. eigenvalues --    0.27076   0.44649   0.45665   0.45671   0.45672
 Alpha virt. eigenvalues --    0.48112   0.48112   0.60875   0.65019   0.65019
 Alpha virt. eigenvalues --    0.65019   0.80725   0.80737   0.80738   0.86657
 Alpha virt. eigenvalues --    0.86662   0.86663   1.02212   1.02993   1.02995
 Alpha virt. eigenvalues --    1.02996   1.15147   1.15148   1.15150   1.16785
 Alpha virt. eigenvalues --    1.16785   1.38010   1.46098   1.46108   1.46109
 Alpha virt. eigenvalues --    1.60234   1.60235   1.60244   1.60803   1.60803
 Alpha virt. eigenvalues --    1.61938   1.74602   1.74603   1.74605   2.09463
 Alpha virt. eigenvalues --    2.09464   2.09475   2.27917   2.38756   2.38772
 Alpha virt. eigenvalues --    2.38774   2.44452   2.44453   2.70352   2.70352
 Alpha virt. eigenvalues --    2.70360   2.81738   2.81738   2.81743   2.86616
 Alpha virt. eigenvalues --    2.86616   2.95941   2.95945   2.95946   3.03094
 Alpha virt. eigenvalues --    3.03789   3.03807   3.03809   3.19030   3.19050
 Alpha virt. eigenvalues --    3.19052   3.19547   3.19550   3.19575   3.46218
 Alpha virt. eigenvalues --    3.61268   3.61268   3.61269   3.73063   3.73095
 Alpha virt. eigenvalues --    3.73098   4.02789   4.14826   4.14827   4.15984
 Alpha virt. eigenvalues --    4.15986   4.16005   4.26668   4.26670   4.26690
 Alpha virt. eigenvalues --    4.52305   4.52305   4.67371   4.83423   4.83423
 Alpha virt. eigenvalues --    4.91839   4.91841   4.91858   5.40942   5.40943
 Alpha virt. eigenvalues --    5.40958   5.56269   5.56273   5.56274   5.63012
 Alpha virt. eigenvalues --    6.10493   6.10497   6.10497   7.58433   7.58437
 Alpha virt. eigenvalues --    7.58477   7.80754   7.80756   7.80757   7.88902
 Alpha virt. eigenvalues --    8.09759   8.09798   8.09802   8.16308   8.16308
 Alpha virt. eigenvalues --    8.29507   8.29508   8.29523   8.54812   8.54812
 Alpha virt. eigenvalues --    8.73559   8.73573   8.73574   8.96536   8.96536
 Alpha virt. eigenvalues --    9.03671   9.03675   9.03702   9.26352   9.26360
 Alpha virt. eigenvalues --    9.26437   9.31777   9.31778   9.31784   9.33613
 Alpha virt. eigenvalues --    9.39234   9.39235   9.39243   9.84849   9.84914
 Alpha virt. eigenvalues --    9.84921  10.32832  10.58880  10.58880  10.66070
 Alpha virt. eigenvalues --   10.66071  10.66091  10.87956  10.87993  10.87996
 Alpha virt. eigenvalues --   11.08354  11.08387  11.08391  11.13203  11.13205
 Alpha virt. eigenvalues --   11.41250  11.41300  11.41306  11.45432  11.90346
 Alpha virt. eigenvalues --   11.90386  11.90389  12.11565  12.37197  12.37248
 Alpha virt. eigenvalues --   12.37250  12.78413  12.78413  12.99834  12.99837
 Alpha virt. eigenvalues --   12.99837  15.81144  17.51337  17.51421  17.51427
 Alpha virt. eigenvalues --   40.28110
          Condensed to atoms (all electrons):
              1          2          3          4          5
     1  C    5.034505   0.410557   0.410571   0.410572   0.410573
     2  H    0.410557   0.477577  -0.019103  -0.019102  -0.019100
     3  H    0.410571  -0.019103   0.477506  -0.019087  -0.019087
     4  H    0.410572  -0.019102  -0.019087   0.477502  -0.019087
     5  H    0.410573  -0.019100  -0.019087  -0.019087   0.477497
 Mulliken atomic charges:
              1
     1  C   -0.676777
     2  H    0.169171
     3  H    0.169200
     4  H    0.169202
     5  H    0.169204
 Sum of Mulliken atomic charges =   0.00000
 Mulliken charges with hydrogens summed into heavy atoms:
              1
     1  C    0.000000
 Sum of Mulliken charges with hydrogens summed into heavy atoms =   0.00000
 Electronic spatial extent (au):  <R**2>=             35.6408
 Charge=              0.0000 electrons
 Dipole moment (field-independent basis, Debye):
    X=              0.0000    Y=              0.0000    Z=              0.0001  Tot=              0.0001
 Quadrupole moment (field-independent basis, Debye-Ang):
   XX=             -8.4064   YY=             -8.4065   ZZ=             -8.4080
   XY=              0.0000   XZ=              0.0000   YZ=              0.0000
 Traceless Quadrupole moment (field-independent basis, Debye-Ang):
   XX=              0.0006   YY=              0.0005   ZZ=             -0.0010
   XY=              0.0000   XZ=              0.0000   YZ=              0.0000
 Octapole moment (field-independent basis, Debye-Ang**2):
  XXX=              0.4851  YYY=              0.3191  ZZZ=              0.7917  XYY=             -0.4130
  XXY=             -0.3804  XXZ=             -0.3615  XZZ=             -0.0720  YZZ=              0.0613
  YYZ=             -0.4302  XYZ=             -0.0041
 Hexadecapole moment (field-independent basis, Debye-Ang**3):
 XXXX=            -15.7282 YYYY=            -15.8198 ZZZZ=            -15.5128 XXXY=             -0.0446
 XXXZ=             -0.2545 YYYX=              0.0466 YYYZ=             -0.2793 ZZZX=             -0.0540
 ZZZY=              0.0388 XXYY=             -5.2693 XXZZ=             -5.5786 YYZZ=             -5.4871
 XXYZ=              0.2404 YYXZ=              0.3086 ZZXY=             -0.0020
 N-N= 1.346776295488D+01 E-N=-1.199817978386D+02  KE= 4.018123287262D+01
 1\1\GINC-PLUTO\SP\RHF\GFHFB2\C1H4\JMSOLANO\25-Apr-2025\0\\#N Geom=AllC
 heck Guess=TCheck SCRF=Check HF/GFHFB2 SCF=Tight\\G4-B3LYP ch4\\0,1\C,
 0,-0.0000172033,0.0000063068,0.000160835\H,0,-0.0137358654,0.006853762
 ,1.0875209097\H,0,-0.4001445586,0.9396838719,-0.3729934219\H,0,-0.6088
 752029,-0.8237718622,-0.3645520582\H,0,1.0226018302,-0.1226920784,-0.3
 484282646\\Version=EM64L-G09RevB.01\State=1-A\HF=-40.2168831\RMSD=1.00
 0e-09\Dipole=-0.0000052,0.0000035,0.0000462\Quadrupole=0.0004159,0.000
 3359,-0.0007518,0.0000081,-0.000032,0.0000198\PG=C01 [X(C1H4)]\\@


 FROM THE ASHES OF OUR DESPAIR GROW THE FLOWERS OF TOMORROW.
 Job cpu time:  0 days  0 hours  0 minutes 31.8 seconds.
 File lengths (MBytes):  RWF=     16 Int=      0 D2E=      0 Chk=      3 Scr=      1
 Normal termination of Gaussian 09 at Fri Apr 25 13:41:55 2025.
